 Entering Gaussian System, Link 0=g09
 Input=/work/cjs14/CJS1_emim-cl_BM_6-311+g-d-p-_gd3bj_freq_unfrz.com
 Output=/work/cjs14/CJS1_emim-cl_BM_6-311+g-d-p-_gd3bj_freq_unfrz.log
 Initial command:
 /apps/gaussian/g09_d01/g09/l1.exe /tmp/pbs.9407323.cx1b/Gau-10567.inp -scrdir=/tmp/pbs.9407323.cx1b/
 Entering Link 1 = /apps/gaussian/g09_d01/g09/l1.exe PID=     10568.
  
 Copyright (c) 1988,1990,1992,1993,1995,1998,2003,2009,2013,
            Gaussian, Inc.  All Rights Reserved.
  
 This is part of the Gaussian(R) 09 program.  It is based on
 the Gaussian(R) 03 system (copyright 2003, Gaussian, Inc.),
 the Gaussian(R) 98 system (copyright 1998, Gaussian, Inc.),
 the Gaussian(R) 94 system (copyright 1995, Gaussian, Inc.),
 the Gaussian 92(TM) system (copyright 1992, Gaussian, Inc.),
 the Gaussian 90(TM) system (copyright 1990, Gaussian, Inc.),
 the Gaussian 88(TM) system (copyright 1988, Gaussian, Inc.),
 the Gaussian 86(TM) system (copyright 1986, Carnegie Mellon
 University), and the Gaussian 82(TM) system (copyright 1983,
 Carnegie Mellon University). Gaussian is a federally registered
 trademark of Gaussian, Inc.
  
 This software contains proprietary and confidential information,
 including trade secrets, belonging to Gaussian, Inc.
  
 This software is provided under written license and may be
 used, copied, transmitted, or stored only in accord with that
 written license.
  
 The following legend is applicable only to US Government
 contracts under FAR:
  
                    RESTRICTED RIGHTS LEGEND
  
 Use, reproduction and disclosure by the US Government is
 subject to restrictions as set forth in subparagraphs (a)
 and (c) of the Commercial Computer Software - Restricted
 Rights clause in FAR 52.227-19.
  
 Gaussian, Inc.
 340 Quinnipiac St., Bldg. 40, Wallingford CT 06492
  
  
 ---------------------------------------------------------------
 Warning -- This program may not be used in any manner that
 competes with the business of Gaussian, Inc. or will provide
 assistance to any competitor of Gaussian, Inc.  The licensee
 of this program is prohibited from giving any competitor of
 Gaussian, Inc. access to this program.  By using this program,
 the user acknowledges that Gaussian, Inc. is engaged in the
 business of creating and licensing software in the field of
 computational chemistry and represents and warrants to the
 licensee that it is not a competitor of Gaussian, Inc. and that
 it will not use this program in any manner prohibited above.
 ---------------------------------------------------------------
  

 Cite this work as:
 Gaussian 09, Revision D.01,
 M. J. Frisch, G. W. Trucks, H. B. Schlegel, G. E. Scuseria, 
 M. A. Robb, J. R. Cheeseman, G. Scalmani, V. Barone, B. Mennucci, 
 G. A. Petersson, H. Nakatsuji, M. Caricato, X. Li, H. P. Hratchian, 
 A. F. Izmaylov, J. Bloino, G. Zheng, J. L. Sonnenberg, M. Hada, 
 M. Ehara, K. Toyota, R. Fukuda, J. Hasegawa, M. Ishida, T. Nakajima, 
 Y. Honda, O. Kitao, H. Nakai, T. Vreven, J. A. Montgomery, Jr., 
 J. E. Peralta, F. Ogliaro, M. Bearpark, J. J. Heyd, E. Brothers, 
 K. N. Kudin, V. N. Staroverov, T. Keith, R. Kobayashi, J. Normand, 
 K. Raghavachari, A. Rendell, J. C. Burant, S. S. Iyengar, J. Tomasi, 
 M. Cossi, N. Rega, J. M. Millam, M. Klene, J. E. Knox, J. B. Cross, 
 V. Bakken, C. Adamo, J. Jaramillo, R. Gomperts, R. E. Stratmann, 
 O. Yazyev, A. J. Austin, R. Cammi, C. Pomelli, J. W. Ochterski, 
 R. L. Martin, K. Morokuma, V. G. Zakrzewski, G. A. Voth, 
 P. Salvador, J. J. Dannenberg, S. Dapprich, A. D. Daniels, 
 O. Farkas, J. B. Foresman, J. V. Ortiz, J. Cioslowski, 
 and D. J. Fox, Gaussian, Inc., Wallingford CT, 2013.
 
 ******************************************
 Gaussian 09:  ES64L-G09RevD.01 24-Apr-2013
                19-Apr-2015 
 ******************************************
 %nprocshared=8
 Will use up to    8 processors via shared memory.
 %mem=15000MB
 %chk=CJS1_emim-cl_BM_6-311+g-d-p-_gd3bj_freq_unfrz.chk
 ----------------------------------------------------------------------
 # freq b3lyp/6-311+g(d,p) geom=checkpoint integral=grid=ultrafine scf=
 conver=9 empiricaldispersion=gd3bj
 ----------------------------------------------------------------------
 1/10=4,29=2,30=1,38=1/1,3;
 2/12=2,40=1/2;
 3/5=4,6=6,7=111,11=2,14=-4,16=1,25=1,30=1,71=2,74=-5,75=-5,124=41,140=1/1,2,3;
 4//1;
 5/5=2,6=9,38=5,98=1/2;
 8/6=4,10=90,11=11/1;
 11/6=1,8=1,9=11,15=111,16=1/1,2,10;
 10/6=1/2;
 6/7=2,8=2,9=2,10=2,18=1,28=1/1;
 7/8=1,10=1,25=1/1,2,3,16;
 1/10=4,30=1/3;
 99//99;
 ----------------------------------------------------------------------
 Emim+ (optimised with b3lyp+gd3bj / aug-cc-pvtz) and Cl- in the back-m
 ethyl position created on; Thu Apr 16 19:11:53 BST 2015, from; CJS1_em
 im-cl_BM_init.com created on; Fri Apr 17 20:54:16 BST 2015, from; CJS1
 _emim-cl_BM_6-311+g-d-p-_gd3bj_opt-modredundant_difrz.com created on; 
 Sun Apr 19 19:58:25 BST 2015, from; CJS1_emim-cl_BM_6-311+g-d-p-_gd3bj
 _opt-modredundant_unfrz.com
 ----------------------------------------------------------------------
 Structure from the checkpoint file:  "CJS1_emim-cl_BM_6-311+g-d-p-_gd3bj_freq_unfrz.chk"
 Charge =  0 Multiplicity = 1
 Redundant internal coordinates found in file.
 C,0,-0.3351627263,1.6713313318,-0.1042526839
 C,0,-1.675800619,1.5543100498,0.116053494
 C,0,-0.8463509881,-0.4741770236,-0.2266098897
 N,0,0.1672020976,0.3971764423,-0.320050745
 H,0,0.2985763306,2.5404306427,-0.1214625796
 H,0,-2.4836965916,2.2544661103,0.3813894237
 H,0,-0.7665475883,-1.5408568871,-0.3462107176
 N,0,-1.9663895834,0.2038108128,0.0348146447
 C,0,1.5797522898,0.0512908356,-0.5270364851
 C,0,2.3892234159,0.1475060881,0.7621955188
 H,0,1.9701182811,0.7245224464,-1.2922454377
 H,0,1.6067880522,-0.959685034,-0.9359654449
 H,0,3.429711795,-0.1175741982,0.5632908436
 H,0,2.3675025134,1.1608058967,1.1673161717
 H,0,1.997798184,-0.5335549915,1.520567835
 C,0,-3.3138436676,-0.3737004054,0.1922240417
 H,0,-3.9350419168,0.3941863992,0.6747513978
 H,0,-3.7199415292,-0.6124254994,-0.7909145841
 H,0,-3.2446280705,-1.2708956828,0.8063100287
 Cl,0,-4.4221855587,2.5985485564,1.253071688
 Recover connectivity data from disk.

 GradGradGradGradGradGradGradGradGradGradGradGradGradGradGradGradGradGrad
 Berny optimization.
 Initialization pass.
                           ----------------------------
                           !    Initial Parameters    !
                           ! (Angstroms and Degrees)  !
 --------------------------                            --------------------------
 ! Name  Definition              Value          Derivative Info.                !
 --------------------------------------------------------------------------------
 ! R1    R(1,2)                  1.3636         calculate D2E/DX2 analytically  !
 ! R2    R(1,4)                  1.3865         calculate D2E/DX2 analytically  !
 ! R3    R(1,5)                  1.0758         calculate D2E/DX2 analytically  !
 ! R4    R(2,6)                  1.1015         calculate D2E/DX2 analytically  !
 ! R5    R(2,8)                  1.3838         calculate D2E/DX2 analytically  !
 ! R6    R(3,4)                  1.3399         calculate D2E/DX2 analytically  !
 ! R7    R(3,7)                  1.0763         calculate D2E/DX2 analytically  !
 ! R8    R(3,8)                  1.3351         calculate D2E/DX2 analytically  !
 ! R9    R(4,9)                  1.4689         calculate D2E/DX2 analytically  !
 ! R10   R(6,20)                 2.1531         calculate D2E/DX2 analytically  !
 ! R11   R(8,16)                 1.4744         calculate D2E/DX2 analytically  !
 ! R12   R(9,10)                 1.5253         calculate D2E/DX2 analytically  !
 ! R13   R(9,11)                 1.0914         calculate D2E/DX2 analytically  !
 ! R14   R(9,12)                 1.0909         calculate D2E/DX2 analytically  !
 ! R15   R(10,13)                1.092          calculate D2E/DX2 analytically  !
 ! R16   R(10,14)                1.0915         calculate D2E/DX2 analytically  !
 ! R17   R(10,15)                1.0919         calculate D2E/DX2 analytically  !
 ! R18   R(16,17)                1.0993         calculate D2E/DX2 analytically  !
 ! R19   R(16,18)                1.0902         calculate D2E/DX2 analytically  !
 ! R20   R(16,19)                1.0894         calculate D2E/DX2 analytically  !
 ! R21   R(17,20)                2.3304         calculate D2E/DX2 analytically  !
 ! R22   R(18,20)                3.8706         calculate D2E/DX2 analytically  !
 ! A1    A(2,1,4)              107.6074         calculate D2E/DX2 analytically  !
 ! A2    A(2,1,5)              130.6232         calculate D2E/DX2 analytically  !
 ! A3    A(4,1,5)              121.7686         calculate D2E/DX2 analytically  !
 ! A4    A(1,2,6)              134.865          calculate D2E/DX2 analytically  !
 ! A5    A(1,2,8)              106.3029         calculate D2E/DX2 analytically  !
 ! A6    A(6,2,8)              118.7156         calculate D2E/DX2 analytically  !
 ! A7    A(4,3,7)              125.4968         calculate D2E/DX2 analytically  !
 ! A8    A(4,3,8)              108.5426         calculate D2E/DX2 analytically  !
 ! A9    A(7,3,8)              125.9603         calculate D2E/DX2 analytically  !
 ! A10   A(1,4,3)              108.2214         calculate D2E/DX2 analytically  !
 ! A11   A(1,4,9)              125.9254         calculate D2E/DX2 analytically  !
 ! A12   A(3,4,9)              125.7402         calculate D2E/DX2 analytically  !
 ! A13   A(2,6,20)             149.2526         calculate D2E/DX2 analytically  !
 ! A14   A(2,8,3)              109.325          calculate D2E/DX2 analytically  !
 ! A15   A(2,8,16)             124.6042         calculate D2E/DX2 analytically  !
 ! A16   A(3,8,16)             126.0628         calculate D2E/DX2 analytically  !
 ! A17   A(4,9,10)             112.1087         calculate D2E/DX2 analytically  !
 ! A18   A(4,9,11)             107.3069         calculate D2E/DX2 analytically  !
 ! A19   A(4,9,12)             107.1498         calculate D2E/DX2 analytically  !
 ! A20   A(10,9,11)            111.3385         calculate D2E/DX2 analytically  !
 ! A21   A(10,9,12)            111.2319         calculate D2E/DX2 analytically  !
 ! A22   A(11,9,12)            107.4562         calculate D2E/DX2 analytically  !
 ! A23   A(9,10,13)            109.6571         calculate D2E/DX2 analytically  !
 ! A24   A(9,10,14)            111.2052         calculate D2E/DX2 analytically  !
 ! A25   A(9,10,15)            110.9445         calculate D2E/DX2 analytically  !
 ! A26   A(13,10,14)           108.1753         calculate D2E/DX2 analytically  !
 ! A27   A(13,10,15)           108.4622         calculate D2E/DX2 analytically  !
 ! A28   A(14,10,15)           108.3089         calculate D2E/DX2 analytically  !
 ! A29   A(8,16,17)            106.8396         calculate D2E/DX2 analytically  !
 ! A30   A(8,16,18)            109.2641         calculate D2E/DX2 analytically  !
 ! A31   A(8,16,19)            108.9466         calculate D2E/DX2 analytically  !
 ! A32   A(17,16,18)           109.7747         calculate D2E/DX2 analytically  !
 ! A33   A(17,16,19)           111.3314         calculate D2E/DX2 analytically  !
 ! A34   A(18,16,19)           110.5891         calculate D2E/DX2 analytically  !
 ! A35   A(16,17,20)           152.5998         calculate D2E/DX2 analytically  !
 ! A36   A(16,18,20)            53.8206         calculate D2E/DX2 analytically  !
 ! A37   A(6,20,17)             63.9075         calculate D2E/DX2 analytically  !
 ! A38   A(6,20,18)             59.3556         calculate D2E/DX2 analytically  !
 ! A39   A(17,20,18)            17.5078         calculate D2E/DX2 analytically  !
 ! D1    D(4,1,2,6)            176.0636         calculate D2E/DX2 analytically  !
 ! D2    D(4,1,2,8)              0.2104         calculate D2E/DX2 analytically  !
 ! D3    D(5,1,2,6)             -3.6157         calculate D2E/DX2 analytically  !
 ! D4    D(5,1,2,8)           -179.4688         calculate D2E/DX2 analytically  !
 ! D5    D(2,1,4,3)             -0.2662         calculate D2E/DX2 analytically  !
 ! D6    D(2,1,4,9)           -176.5707         calculate D2E/DX2 analytically  !
 ! D7    D(5,1,4,3)            179.4474         calculate D2E/DX2 analytically  !
 ! D8    D(5,1,4,9)              3.143          calculate D2E/DX2 analytically  !
 ! D9    D(1,2,6,20)          -155.8074         calculate D2E/DX2 analytically  !
 ! D10   D(8,2,6,20)            19.6536         calculate D2E/DX2 analytically  !
 ! D11   D(1,2,8,3)             -0.0828         calculate D2E/DX2 analytically  !
 ! D12   D(1,2,8,16)          -179.1085         calculate D2E/DX2 analytically  !
 ! D13   D(6,2,8,3)           -176.7325         calculate D2E/DX2 analytically  !
 ! D14   D(6,2,8,16)             4.2418         calculate D2E/DX2 analytically  !
 ! D15   D(7,3,4,1)           -179.9654         calculate D2E/DX2 analytically  !
 ! D16   D(7,3,4,9)             -3.6523         calculate D2E/DX2 analytically  !
 ! D17   D(8,3,4,1)              0.2149         calculate D2E/DX2 analytically  !
 ! D18   D(8,3,4,9)            176.528          calculate D2E/DX2 analytically  !
 ! D19   D(20,3,4,1)            -6.2246         calculate D2E/DX2 analytically  !
 ! D20   D(4,3,8,2)             -0.0832         calculate D2E/DX2 analytically  !
 ! D21   D(4,3,8,16)           178.9248         calculate D2E/DX2 analytically  !
 ! D22   D(7,3,8,2)           -179.9018         calculate D2E/DX2 analytically  !
 ! D23   D(7,3,8,16)            -0.8938         calculate D2E/DX2 analytically  !
 ! D24   D(1,4,9,10)            73.1027         calculate D2E/DX2 analytically  !
 ! D25   D(1,4,9,11)           -49.4424         calculate D2E/DX2 analytically  !
 ! D26   D(1,4,9,12)          -164.5917         calculate D2E/DX2 analytically  !
 ! D27   D(3,4,9,10)          -102.5715         calculate D2E/DX2 analytically  !
 ! D28   D(3,4,9,11)           134.8834         calculate D2E/DX2 analytically  !
 ! D29   D(3,4,9,12)            19.7341         calculate D2E/DX2 analytically  !
 ! D30   D(2,6,20,17)          -18.1347         calculate D2E/DX2 analytically  !
 ! D31   D(2,6,20,18)          -37.3778         calculate D2E/DX2 analytically  !
 ! D32   D(2,8,16,17)          -17.0042         calculate D2E/DX2 analytically  !
 ! D33   D(2,8,16,18)          101.696          calculate D2E/DX2 analytically  !
 ! D34   D(2,8,16,19)         -137.3842         calculate D2E/DX2 analytically  !
 ! D35   D(3,8,16,17)          164.1331         calculate D2E/DX2 analytically  !
 ! D36   D(3,8,16,18)          -77.1666         calculate D2E/DX2 analytically  !
 ! D37   D(3,8,16,19)           43.7531         calculate D2E/DX2 analytically  !
 ! D38   D(4,9,10,13)          179.9686         calculate D2E/DX2 analytically  !
 ! D39   D(4,9,10,14)          -60.4359         calculate D2E/DX2 analytically  !
 ! D40   D(4,9,10,15)           60.1808         calculate D2E/DX2 analytically  !
 ! D41   D(11,9,10,13)         -59.8042         calculate D2E/DX2 analytically  !
 ! D42   D(11,9,10,14)          59.7913         calculate D2E/DX2 analytically  !
 ! D43   D(11,9,10,15)        -179.5919         calculate D2E/DX2 analytically  !
 ! D44   D(12,9,10,13)          60.0163         calculate D2E/DX2 analytically  !
 ! D45   D(12,9,10,14)         179.6117         calculate D2E/DX2 analytically  !
 ! D46   D(12,9,10,15)         -59.7715         calculate D2E/DX2 analytically  !
 ! D47   D(8,16,17,20)          21.3786         calculate D2E/DX2 analytically  !
 ! D48   D(18,16,17,20)        -96.9888         calculate D2E/DX2 analytically  !
 ! D49   D(19,16,17,20)        140.2196         calculate D2E/DX2 analytically  !
 ! D50   D(8,16,18,20)         -96.9353         calculate D2E/DX2 analytically  !
 ! D51   D(17,16,18,20)         19.9212         calculate D2E/DX2 analytically  !
 ! D52   D(19,16,18,20)        143.1505         calculate D2E/DX2 analytically  !
 ! D53   D(16,17,20,6)          -9.499          calculate D2E/DX2 analytically  !
 ! D54   D(16,17,20,18)         60.9842         calculate D2E/DX2 analytically  !
 ! D55   D(16,18,20,6)          70.118          calculate D2E/DX2 analytically  !
 ! D56   D(16,18,20,17)        -30.1813         calculate D2E/DX2 analytically  !
 --------------------------------------------------------------------------------
 Trust Radius=3.00D-01 FncErr=1.00D-07 GrdErr=1.00D-07
 Number of steps in this run=      2 maximum allowed number of steps=      2.
 GradGradGradGradGradGradGradGradGradGradGradGradGradGradGradGradGradGrad

                          Input orientation:                          
 ---------------------------------------------------------------------
 Center     Atomic      Atomic             Coordinates (Angstroms)
 Number     Number       Type             X           Y           Z
 ---------------------------------------------------------------------
      1          6           0       -0.335163    1.671331   -0.104253
      2          6           0       -1.675801    1.554310    0.116053
      3          6           0       -0.846351   -0.474177   -0.226610
      4          7           0        0.167202    0.397176   -0.320051
      5          1           0        0.298576    2.540431   -0.121463
      6          1           0       -2.483697    2.254466    0.381389
      7          1           0       -0.766548   -1.540857   -0.346211
      8          7           0       -1.966390    0.203811    0.034815
      9          6           0        1.579752    0.051291   -0.527036
     10          6           0        2.389223    0.147506    0.762196
     11          1           0        1.970118    0.724522   -1.292245
     12          1           0        1.606788   -0.959685   -0.935965
     13          1           0        3.429712   -0.117574    0.563291
     14          1           0        2.367503    1.160806    1.167316
     15          1           0        1.997798   -0.533555    1.520568
     16          6           0       -3.313844   -0.373700    0.192224
     17          1           0       -3.935042    0.394186    0.674751
     18          1           0       -3.719942   -0.612425   -0.790915
     19          1           0       -3.244628   -1.270896    0.806310
     20         17           0       -4.422186    2.598549    1.253072
 ---------------------------------------------------------------------
                    Distance matrix (angstroms):
                    1          2          3          4          5
     1  C    0.000000
     2  C    1.363649   0.000000
     3  C    2.208957   2.218144   0.000000
     4  N    1.386510   2.219415   1.339880   0.000000
     5  H    1.075758   2.219687   3.226418   2.156440   0.000000
     6  H    2.278616   1.101507   3.239762   3.311919   2.841774
     7  H    3.250045   3.258909   1.076327   2.151406   4.223968
     8  N    2.198603   1.383795   1.335102   2.171528   3.257957
     9  C    2.543654   3.642974   2.500470   1.468938   2.828731
    10  C    3.239607   4.349830   3.439937   2.484144   3.298143
    11  H    2.760814   3.995570   3.241135   2.074325   2.731722
    12  H    3.374191   4.266416   2.599383   2.071915   3.824349
    13  H    4.221383   5.390870   4.363006   3.418952   4.163879
    14  H    3.030169   4.196224   3.865883   2.763460   2.800852
    15  H    3.597815   4.452771   3.338464   2.757756   3.877242
    16  C    3.625271   2.531049   2.504803   3.601993   4.651896
    17  H    3.898343   2.600423   3.332644   4.221143   4.812883
    18  H    4.140504   3.113815   2.931736   4.043624   5.151422
    19  H    4.236840   3.304461   2.730095   3.961280   5.285950
    20  Cl   4.405203   3.150536   4.941426   5.327592   4.917145
                    6          7          8          9         10
     6  H    0.000000
     7  H    4.228768   0.000000
     8  N    2.143107   2.151434   0.000000
     9  C    4.710715   2.841259   3.593614   0.000000
    10  C    5.322560   3.746735   4.416290   1.525326   0.000000
    11  H    4.997824   3.676447   4.186684   1.091408   2.174701
    12  H    5.366401   2.513622   3.881203   1.090883   2.172977
    13  H    6.374015   4.523441   5.431435   2.153991   1.091992
    14  H    5.034670   4.405907   4.580504   2.173110   1.091499
    15  H    5.399499   3.484412   4.297203   2.170136   1.091873
    16  C    2.762641   2.853223   1.474425   4.964397   5.755128
    17  H    2.377626   3.850469   2.078787   5.654629   6.329678
    18  H    3.334916   3.127664   2.103097   5.347607   6.349137
    19  H    3.631494   2.746282   2.098537   5.176933   5.809827
    20  Cl   2.153128   5.749441   3.640035   6.758740   7.255609
                   11         12         13         14         15
    11  H    0.000000
    12  H    1.759403   0.000000
    13  H    2.506503   2.505987   0.000000
    14  H    2.529368   3.082039   1.768443   0.000000
    15  H    3.081468   2.523694   1.771947   1.769838   0.000000
    16  C    5.597321   5.082205   6.758612   5.965166   5.477553
    17  H    6.232906   5.927837   7.383354   6.368076   6.064215
    18  H    5.866476   5.340007   7.293579   6.635962   6.167797
    19  H    5.964831   5.164166   6.777612   6.126949   5.341991
    20  Cl   7.131070   7.334946   8.336991   6.940772   7.148274
                   16         17         18         19         20
    16  C    0.000000
    17  H    1.099259   0.000000
    18  H    1.090168   1.791009   0.000000
    19  H    1.089427   1.807340   1.791824   0.000000
    20  Cl   3.344859   2.330445   3.870579   4.069255   0.000000
 Stoichiometry    C6H11ClN2
 Framework group  C1[X(C6H11ClN2)]
 Deg. of freedom    54
 Full point group                 C1      NOp   1
 Largest Abelian subgroup         C1      NOp   1
 Largest concise Abelian subgroup C1      NOp   1
                         Standard orientation:                         
 ---------------------------------------------------------------------
 Center     Atomic      Atomic             Coordinates (Angstroms)
 Number     Number       Type             X           Y           Z
 ---------------------------------------------------------------------
      1          6           0       -0.737283   -0.974476   -0.569400
      2          6           0        0.519482   -0.472775   -0.400943
      3          6           0       -0.936769    1.162525   -0.046978
      4          7           0       -1.634598    0.059213   -0.348665
      5          1           0       -1.067377   -1.967227   -0.819874
      6          1           0        1.534771   -0.899796   -0.413556
      7          1           0       -1.358584    2.127281    0.176175
      8          7           0        0.363990    0.862900   -0.074316
      9          6           0       -3.099114   -0.054419   -0.356271
     10          6           0       -3.625792   -0.770636    0.883190
     11          1           0       -3.379036   -0.582825   -1.269288
     12          1           0       -3.499909    0.957635   -0.427939
     13          1           0       -4.715050   -0.832332    0.836743
     14          1           0       -3.229871   -1.785546    0.950827
     15          1           0       -3.348362   -0.232952    1.792099
     16          6           0        1.475603    1.798246    0.177422
     17          1           0        2.370783    1.187085    0.360468
     18          1           0        1.628209    2.421119   -0.704171
     19          1           0        1.231553    2.412867    1.043178
     20         17           0        3.597081   -0.787699    0.194946
 ---------------------------------------------------------------------
 Rotational constants (GHZ):      3.0628913      0.5479039      0.4913380
 Standard basis: 6-311+G(d,p) (5D, 7F)
 There are   281 symmetry adapted cartesian basis functions of A   symmetry.
 There are   272 symmetry adapted basis functions of A   symmetry.
   272 basis functions,   429 primitive gaussians,   281 cartesian basis functions
    39 alpha electrons       39 beta electrons
       nuclear repulsion energy       503.6836605459 Hartrees.
 NAtoms=   20 NActive=   20 NUniq=   20 SFac= 1.00D+00 NAtFMM=   60 NAOKFM=F Big=F
 Integral buffers will be    131072 words long.
 Raffenetti 2 integral format.
 Two-electron integral symmetry is turned on.
 Nuclear repulsion after empirical dispersion term =      503.6521590283 Hartrees.
 One-electron integrals computed using PRISM.
 NBasis=   272 RedAO= T EigKep=  8.42D-06  NBF=   272
 NBsUse=   272 1.00D-06 EigRej= -1.00D+00 NBFU=   272
 ExpMin= 4.38D-02 ExpMax= 1.06D+05 ExpMxC= 3.62D+03 IAcc=3 IRadAn=         5 AccDes= 0.00D+00
 Harris functional with IExCor=  402 and IRadAn=       5 diagonalized for initial guess.
 HarFok:  IExCor=  402 AccDes= 0.00D+00 IRadAn=         5 IDoV= 1 UseB2=F ITyADJ=14
 ICtDFT=  3500011 ScaDFX=  1.000000  1.000000  1.000000  1.000000
 FoFCou: FMM=F IPFlag=           0 FMFlag=      100000 FMFlg1=           0
         NFxFlg=           0 DoJE=T BraDBF=F KetDBF=T FulRan=T
         wScrn=  0.000000 ICntrl=     500 IOpCl=  0 I1Cent=   200000004 NGrid=           0
         NMat0=    1 NMatS0=      1 NMatT0=    0 NMatD0=    1 NMtDS0=    0 NMtDT0=    0
 Petite list used in FoFCou.
 Keep R1 ints in memory in canonical form, NReq=700735283.
 Requested convergence on RMS density matrix=1.00D-09 within 128 cycles.
 Requested convergence on MAX density matrix=1.00D-07.
 Requested convergence on             energy=1.00D-07.
 No special actions if energy rises.
 SCF Done:  E(RB3LYP) =  -805.103569739     A.U. after   16 cycles
            NFock= 16  Conv=0.86D-09     -V/T= 2.0033
 DoSCS=F DFT=T ScalE2(SS,OS)=  1.000000  1.000000
 Range of M.O.s used for correlation:     1   272
 NBasis=   272 NAE=    39 NBE=    39 NFC=     0 NFV=     0
 NROrb=    272 NOA=    39 NOB=    39 NVA=   233 NVB=   233

 **** Warning!!: The largest alpha MO coefficient is  0.69473987D+02

 Symmetrizing basis deriv contribution to polar:
 IMax=3 JMax=2 DiffMx= 0.00D+00
 G2DrvN: will do    21 centers at a time, making    1 passes.
 Calling FoFCou, ICntrl=  3107 FMM=F I1Cent=   0 AccDes= 0.00D+00.
 End of G2Drv F.D. properties file   721 does not exist.
 End of G2Drv F.D. properties file   722 does not exist.
 End of G2Drv F.D. properties file   788 does not exist.
          IDoAtm=11111111111111111111
          Differentiating once with respect to electric field.
                with respect to dipole field.
          Differentiating once with respect to nuclear coordinates.
 Keep R1 ints in memory in canonical form, NReq=700484201.
          There are    63 degrees of freedom in the 1st order CPHF.  IDoFFX=6 NUNeed=     3.
     60 vectors produced by pass  0 Test12= 1.44D-14 1.59D-09 XBig12= 1.17D+02 5.19D+00.
 AX will form    60 AO Fock derivatives at one time.
     60 vectors produced by pass  1 Test12= 1.44D-14 1.59D-09 XBig12= 2.35D+01 1.28D+00.
     60 vectors produced by pass  2 Test12= 1.44D-14 1.59D-09 XBig12= 2.00D-01 6.67D-02.
     60 vectors produced by pass  3 Test12= 1.44D-14 1.59D-09 XBig12= 7.68D-04 4.11D-03.
     60 vectors produced by pass  4 Test12= 1.44D-14 1.59D-09 XBig12= 2.38D-06 1.90D-04.
     46 vectors produced by pass  5 Test12= 1.44D-14 1.59D-09 XBig12= 4.35D-09 8.91D-06.
     10 vectors produced by pass  6 Test12= 1.44D-14 1.59D-09 XBig12= 6.23D-12 3.45D-07.
      3 vectors produced by pass  7 Test12= 1.44D-14 1.59D-09 XBig12= 5.82D-15 1.11D-08.
 InvSVY:  IOpt=1 It=  1 EMax= 1.07D-14
 Solved reduced A of dimension   359 with    63 vectors.
 Isotropic polarizability for W=    0.000000      107.30 Bohr**3.
 End of Minotr F.D. properties file   721 does not exist.
 End of Minotr F.D. properties file   722 does not exist.
 End of Minotr F.D. properties file   788 does not exist.

 **********************************************************************

            Population analysis using the SCF density.

 **********************************************************************

 Orbital symmetries:
       Occupied  (A) (A) (A) (A) (A) (A) (A) (A) (A) (A) (A) (A)
                 (A) (A) (A) (A) (A) (A) (A) (A) (A) (A) (A) (A)
                 (A) (A) (A) (A) (A) (A) (A) (A) (A) (A) (A) (A)
                 (A) (A) (A)
       Virtual   (A) (A) (A) (A) (A) (A) (A) (A) (A) (A) (A) (A)
                 (A) (A) (A) (A) (A) (A) (A) (A) (A) (A) (A) (A)
                 (A) (A) (A) (A) (A) (A) (A) (A) (A) (A) (A) (A)
                 (A) (A) (A) (A) (A) (A) (A) (A) (A) (A) (A) (A)
                 (A) (A) (A) (A) (A) (A) (A) (A) (A) (A) (A) (A)
                 (A) (A) (A) (A) (A) (A) (A) (A) (A) (A) (A) (A)
                 (A) (A) (A) (A) (A) (A) (A) (A) (A) (A) (A) (A)
                 (A) (A) (A) (A) (A) (A) (A) (A) (A) (A) (A) (A)
                 (A) (A) (A) (A) (A) (A) (A) (A) (A) (A) (A) (A)
                 (A) (A) (A) (A) (A) (A) (A) (A) (A) (A) (A) (A)
                 (A) (A) (A) (A) (A) (A) (A) (A) (A) (A) (A) (A)
                 (A) (A) (A) (A) (A) (A) (A) (A) (A) (A) (A) (A)
                 (A) (A) (A) (A) (A) (A) (A) (A) (A) (A) (A) (A)
                 (A) (A) (A) (A) (A) (A) (A) (A) (A) (A) (A) (A)
                 (A) (A) (A) (A) (A) (A) (A) (A) (A) (A) (A) (A)
                 (A) (A) (A) (A) (A) (A) (A) (A) (A) (A) (A) (A)
                 (A) (A) (A) (A) (A) (A) (A) (A) (A) (A) (A) (A)
                 (A) (A) (A) (A) (A) (A) (A) (A) (A) (A) (A) (A)
                 (A) (A) (A) (A) (A) (A) (A) (A) (A) (A) (A) (A)
                 (A) (A) (A) (A) (A)
 The electronic state is 1-A.
 Alpha  occ. eigenvalues -- -101.37874 -14.44886 -14.43734 -10.30965 -10.28212
 Alpha  occ. eigenvalues --  -10.25541 -10.23913 -10.22391 -10.22112  -9.29253
 Alpha  occ. eigenvalues --   -7.05093  -7.05079  -7.05047  -1.11132  -0.99493
 Alpha  occ. eigenvalues --   -0.84965  -0.81900  -0.76472  -0.70847  -0.67361
 Alpha  occ. eigenvalues --   -0.64989  -0.63793  -0.59661  -0.54368  -0.52617
 Alpha  occ. eigenvalues --   -0.52049  -0.50289  -0.48608  -0.47818  -0.46255
 Alpha  occ. eigenvalues --   -0.44065  -0.43194  -0.42157  -0.41642  -0.34498
 Alpha  occ. eigenvalues --   -0.30086  -0.18389  -0.18240  -0.17980
 Alpha virt. eigenvalues --   -0.07064  -0.03869  -0.01954  -0.01472  -0.00547
 Alpha virt. eigenvalues --   -0.00303   0.00862   0.01776   0.03280   0.03634
 Alpha virt. eigenvalues --    0.04082   0.04616   0.05231   0.05663   0.06638
 Alpha virt. eigenvalues --    0.07914   0.08437   0.08541   0.09692   0.10344
 Alpha virt. eigenvalues --    0.11131   0.11278   0.12389   0.12956   0.13813
 Alpha virt. eigenvalues --    0.13858   0.14124   0.15434   0.15500   0.16264
 Alpha virt. eigenvalues --    0.16615   0.16786   0.17509   0.17673   0.18257
 Alpha virt. eigenvalues --    0.18608   0.19122   0.19537   0.20136   0.21589
 Alpha virt. eigenvalues --    0.21623   0.21992   0.22728   0.23303   0.23750
 Alpha virt. eigenvalues --    0.24511   0.25994   0.26381   0.27045   0.27954
 Alpha virt. eigenvalues --    0.28940   0.30786   0.33864   0.35363   0.35683
 Alpha virt. eigenvalues --    0.37333   0.38155   0.39963   0.41650   0.43396
 Alpha virt. eigenvalues --    0.45470   0.45935   0.46804   0.49000   0.50908
 Alpha virt. eigenvalues --    0.51715   0.51766   0.54669   0.55638   0.56111
 Alpha virt. eigenvalues --    0.57075   0.57373   0.59012   0.59574   0.60259
 Alpha virt. eigenvalues --    0.61163   0.61512   0.62728   0.63438   0.64426
 Alpha virt. eigenvalues --    0.65168   0.66326   0.66569   0.68773   0.69455
 Alpha virt. eigenvalues --    0.72238   0.73895   0.74742   0.77384   0.79562
 Alpha virt. eigenvalues --    0.81653   0.83720   0.84543   0.88751   0.90688
 Alpha virt. eigenvalues --    0.92375   0.92535   0.94531   0.96977   0.99774
 Alpha virt. eigenvalues --    1.00816   1.02635   1.02799   1.03362   1.04542
 Alpha virt. eigenvalues --    1.05580   1.07901   1.09721   1.12843   1.13687
 Alpha virt. eigenvalues --    1.16011   1.19652   1.22908   1.25718   1.26585
 Alpha virt. eigenvalues --    1.30198   1.34393   1.38757   1.39742   1.42438
 Alpha virt. eigenvalues --    1.44475   1.45073   1.48010   1.48854   1.50438
 Alpha virt. eigenvalues --    1.51532   1.52625   1.53697   1.55191   1.57499
 Alpha virt. eigenvalues --    1.58074   1.59833   1.61282   1.62108   1.62458
 Alpha virt. eigenvalues --    1.65393   1.66471   1.68777   1.71004   1.72743
 Alpha virt. eigenvalues --    1.74547   1.76372   1.78393   1.80401   1.81911
 Alpha virt. eigenvalues --    1.83862   1.87008   1.92522   1.96017   1.98523
 Alpha virt. eigenvalues --    2.00821   2.03591   2.05787   2.08997   2.10078
 Alpha virt. eigenvalues --    2.14503   2.15388   2.18221   2.20940   2.23820
 Alpha virt. eigenvalues --    2.26024   2.29985   2.33092   2.38396   2.39519
 Alpha virt. eigenvalues --    2.39729   2.41268   2.42073   2.43536   2.44380
 Alpha virt. eigenvalues --    2.45988   2.47549   2.49258   2.50047   2.51632
 Alpha virt. eigenvalues --    2.53069   2.55645   2.55878   2.57279   2.57809
 Alpha virt. eigenvalues --    2.59503   2.60406   2.61946   2.64469   2.66818
 Alpha virt. eigenvalues --    2.71011   2.71996   2.74560   2.76896   2.78323
 Alpha virt. eigenvalues --    2.79394   2.82682   2.88077   2.91593   2.94743
 Alpha virt. eigenvalues --    2.94940   2.97403   3.08362   3.16825   3.23557
 Alpha virt. eigenvalues --    3.36421   3.52778   3.54347   3.59120   3.64257
 Alpha virt. eigenvalues --    3.69625   3.73873   3.75021   3.76101   3.78331
 Alpha virt. eigenvalues --    3.82269   3.84246   3.86776   3.90314   4.06695
 Alpha virt. eigenvalues --    4.17069   4.68155   4.88578   4.91903   5.22128
 Alpha virt. eigenvalues --    9.84286  23.70624  23.79526  23.85648  23.89971
 Alpha virt. eigenvalues --   23.91612  24.14495  25.95204  26.02334  26.11038
 Alpha virt. eigenvalues --   35.41298  35.56402 215.82207
          Condensed to atoms (all electrons):
               1          2          3          4          5          6
     1  C    8.562787  -2.707999  -0.219516  -0.101555   0.453746  -0.115359
     2  C   -2.707999   8.261403   0.045576   0.351979  -0.041950   0.400226
     3  C   -0.219516   0.045576   5.257938   0.449029   0.011193   0.021716
     4  N   -0.101555   0.351979   0.449029   6.780664  -0.075194   0.025439
     5  H    0.453746  -0.041950   0.011193  -0.075194   0.479839  -0.002589
     6  H   -0.115359   0.400226   0.021716   0.025439  -0.002589   0.443907
     7  H   -0.026805   0.041684   0.439674  -0.045258  -0.000027   0.000196
     8  N    0.392237  -0.073675   0.326888  -0.317892   0.031029  -0.067147
     9  C    0.185012  -0.285814  -0.110312   0.133981  -0.022645   0.003032
    10  C   -0.067548   0.097574   0.000146  -0.070323   0.006279  -0.001815
    11  H   -0.004037   0.000042  -0.014384  -0.043457  -0.001012   0.000008
    12  H    0.007934  -0.007728   0.019321  -0.058416   0.000066  -0.000011
    13  H   -0.000845   0.002401   0.003803   0.019383  -0.000117   0.000000
    14  H    0.014661  -0.012483  -0.006511  -0.023281   0.000445  -0.000004
    15  H   -0.001910  -0.006167  -0.001573  -0.000771  -0.000041   0.000006
    16  C   -0.125659  -0.052290  -0.180783  -0.039420   0.000533  -0.006739
    17  H    0.011945   0.007720   0.015410  -0.003889   0.000081  -0.008434
    18  H   -0.015660   0.000572  -0.022372  -0.004473   0.000023  -0.000887
    19  H    0.024368  -0.016624   0.037270   0.010144   0.000014   0.000526
    20  Cl  -0.081049   0.044977   0.021215  -0.002028   0.000311   0.108489
               7          8          9         10         11         12
     1  C   -0.026805   0.392237   0.185012  -0.067548  -0.004037   0.007934
     2  C    0.041684  -0.073675  -0.285814   0.097574   0.000042  -0.007728
     3  C    0.439674   0.326888  -0.110312   0.000146  -0.014384   0.019321
     4  N   -0.045258  -0.317892   0.133981  -0.070323  -0.043457  -0.058416
     5  H   -0.000027   0.031029  -0.022645   0.006279  -0.001012   0.000066
     6  H    0.000196  -0.067147   0.003032  -0.001815   0.000008  -0.000011
     7  H    0.478729  -0.042352  -0.012390   0.002643   0.000031   0.001718
     8  N   -0.042352   6.685326  -0.052264   0.015032  -0.006314   0.012809
     9  C   -0.012390  -0.052264   5.640748  -0.057534   0.489877   0.400521
    10  C    0.002643   0.015032  -0.057534   5.316951  -0.070168  -0.029356
    11  H    0.000031  -0.006314   0.489877  -0.070168   0.504513  -0.032804
    12  H    0.001718   0.012809   0.400521  -0.029356  -0.032804   0.531611
    13  H   -0.000032  -0.000328  -0.074122   0.430714  -0.003313  -0.003363
    14  H    0.000006   0.003532   0.000835   0.399528  -0.008013   0.006566
    15  H    0.000091  -0.002173  -0.001610   0.394565   0.006339  -0.007998
    16  C    0.006120   0.277316  -0.052987   0.009986  -0.000958   0.002487
    17  H    0.000169  -0.025513   0.001695  -0.000255  -0.000003  -0.000001
    18  H    0.000319  -0.018933  -0.002295   0.000144  -0.000005  -0.000004
    19  H   -0.000267  -0.055734   0.005974  -0.000679   0.000002   0.000019
    20  Cl   0.000341  -0.017644   0.000968  -0.000420  -0.000006  -0.000004
              13         14         15         16         17         18
     1  C   -0.000845   0.014661  -0.001910  -0.125659   0.011945  -0.015660
     2  C    0.002401  -0.012483  -0.006167  -0.052290   0.007720   0.000572
     3  C    0.003803  -0.006511  -0.001573  -0.180783   0.015410  -0.022372
     4  N    0.019383  -0.023281  -0.000771  -0.039420  -0.003889  -0.004473
     5  H   -0.000117   0.000445  -0.000041   0.000533   0.000081   0.000023
     6  H    0.000000  -0.000004   0.000006  -0.006739  -0.008434  -0.000887
     7  H   -0.000032   0.000006   0.000091   0.006120   0.000169   0.000319
     8  N   -0.000328   0.003532  -0.002173   0.277316  -0.025513  -0.018933
     9  C   -0.074122   0.000835  -0.001610  -0.052987   0.001695  -0.002295
    10  C    0.430714   0.399528   0.394565   0.009986  -0.000255   0.000144
    11  H   -0.003313  -0.008013   0.006339  -0.000958  -0.000003  -0.000005
    12  H   -0.003363   0.006566  -0.007998   0.002487  -0.000001  -0.000004
    13  H    0.509663  -0.021979  -0.024247   0.000080   0.000000   0.000000
    14  H   -0.021979   0.516419  -0.027331   0.000060   0.000001   0.000000
    15  H   -0.024247  -0.027331   0.519584  -0.000730   0.000000  -0.000001
    16  C    0.000080   0.000060  -0.000730   5.354785   0.314863   0.429271
    17  H    0.000000   0.000001   0.000000   0.314863   0.410379  -0.012223
    18  H    0.000000   0.000000  -0.000001   0.429271  -0.012223   0.501324
    19  H    0.000000   0.000002   0.000008   0.343261  -0.011631  -0.038845
    20  Cl   0.000000   0.000003  -0.000010  -0.091168   0.078969   0.002025
              19         20
     1  C    0.024368  -0.081049
     2  C   -0.016624   0.044977
     3  C    0.037270   0.021215
     4  N    0.010144  -0.002028
     5  H    0.000014   0.000311
     6  H    0.000526   0.108489
     7  H   -0.000267   0.000341
     8  N   -0.055734  -0.017644
     9  C    0.005974   0.000968
    10  C   -0.000679  -0.000420
    11  H    0.000002  -0.000006
    12  H    0.000019  -0.000004
    13  H    0.000000   0.000000
    14  H    0.000002   0.000003
    15  H    0.000008  -0.000010
    16  C    0.343261  -0.091168
    17  H   -0.011631   0.078969
    18  H   -0.038845   0.002025
    19  H    0.558579   0.000616
    20  Cl   0.000616  17.678201
 Mulliken charges:
               1
     1  C   -0.184751
     2  C   -0.049427
     3  C   -0.093727
     4  N    0.015337
     5  H    0.160017
     6  H    0.199440
     7  H    0.155412
     8  N   -0.064200
     9  C   -0.190669
    10  C   -0.375466
    11  H    0.183662
    12  H    0.156633
    13  H    0.162302
    14  H    0.157543
    15  H    0.153970
    16  C   -0.188027
    17  H    0.220718
    18  H    0.182020
    19  H    0.142998
    20  Cl  -0.743785
 Sum of Mulliken charges =   0.00000
 Mulliken charges with hydrogens summed into heavy atoms:
               1
     1  C   -0.024734
     2  C    0.150013
     3  C    0.061685
     4  N    0.015337
     8  N   -0.064200
     9  C    0.149626
    10  C    0.098349
    16  C    0.357710
    20  Cl  -0.743785
 APT charges:
               1
     1  C   -0.020446
     2  C   -0.083348
     3  C    0.197254
     4  N   -0.353429
     5  H    0.108384
     6  H    0.416777
     7  H    0.115446
     8  N   -0.242406
     9  C    0.427264
    10  C    0.002104
    11  H   -0.015159
    12  H   -0.015143
    13  H    0.004791
    14  H    0.015706
    15  H    0.008433
    16  C    0.188622
    17  H    0.229055
    18  H    0.003772
    19  H   -0.009725
    20  Cl  -0.977954
 Sum of APT charges =   0.00000
 APT charges with hydrogens summed into heavy atoms:
               1
     1  C    0.087938
     2  C    0.333428
     3  C    0.312700
     4  N   -0.353429
     8  N   -0.242406
     9  C    0.396962
    10  C    0.031034
    16  C    0.411725
    20  Cl  -0.977954
 Electronic spatial extent (au):  <R**2>=           2241.1674
 Charge=              0.0000 electrons
 Dipole moment (field-independent basis, Debye):
    X=            -16.1078    Y=              4.6564    Z=             -1.0225  Tot=             16.7985
 Quadrupole moment (field-independent basis, Debye-Ang):
   XX=            -93.8975   YY=            -56.8981   ZZ=            -64.9507
   XY=             13.3927   XZ=             -2.1411   YZ=              2.6212
 Traceless Quadrupole moment (field-independent basis, Debye-Ang):
   XX=            -21.9821   YY=             15.0173   ZZ=              6.9647
   XY=             13.3927   XZ=             -2.1411   YZ=              2.6212
 Octapole moment (field-independent basis, Debye-Ang**2):
  XXX=           -242.5193  YYY=             16.7675  ZZZ=              0.3479  XYY=            -19.8135
  XXY=             42.8926  XXZ=            -10.3932  XZZ=            -11.2818  YZZ=              3.2632
  YYZ=             -2.0413  XYZ=              1.4691
 Hexadecapole moment (field-independent basis, Debye-Ang**3):
 XXXX=          -2974.4809 YYYY=           -425.7748 ZZZZ=           -168.9216 XXXY=            173.1595
 XXXZ=            -31.2384 YYYX=             31.4986 YYYZ=             10.0211 ZZZX=             -2.6421
 ZZZY=              2.9750 XXYY=           -504.4988 XXZZ=           -450.1094 YYZZ=           -101.5188
 XXYZ=              9.1746 YYXZ=             -1.7868 ZZXY=             11.8964
 N-N= 5.036521590283D+02 E-N=-2.901426093594D+03  KE= 8.024325590771D+02
  Exact polarizability: 141.872  -0.386 103.593   1.757   3.874  76.425
 Approx polarizability: 174.662  -2.713 156.052   4.610  10.586 108.720
 Calling FoFJK, ICntrl=    100127 FMM=F ISym2X=0 I1Cent= 0 IOpClX= 0 NMat=1 NMatS=1 NMatT=0.
 Full mass-weighted force constant matrix:
 Low frequencies ---  -20.8165  -12.5585  -12.1894    0.0012    0.0015    0.0022
 Low frequencies ---   14.8780   39.0486  105.6307
 Diagonal vibrational polarizability:
      341.6941892     108.0987083     370.6256005
 Harmonic frequencies (cm**-1), IR intensities (KM/Mole), Raman scattering
 activities (A**4/AMU), depolarization ratios for plane and unpolarized
 incident light, reduced masses (AMU), force constants (mDyne/A),
 and normal coordinates:
                      1                      2                      3
                      A                      A                      A
 Frequencies --     14.0050                39.0459               105.6280
 Red. masses --      4.4331                 2.5170                 3.8182
 Frc consts  --      0.0005                 0.0023                 0.0251
 IR Inten    --      5.1583                 0.7044                 8.2482
  Atom  AN      X      Y      Z        X      Y      Z        X      Y      Z
     1   6     0.00  -0.07   0.19    -0.03   0.01   0.15     0.08   0.05   0.09
     2   6    -0.01  -0.08   0.25    -0.02   0.00   0.09     0.04   0.12   0.12
     3   6    -0.01  -0.02  -0.04     0.03   0.06  -0.02    -0.06   0.09  -0.11
     4   7     0.00  -0.04   0.01     0.00   0.05   0.08     0.02   0.02  -0.06
     5   1     0.00  -0.09   0.25    -0.05   0.00   0.24     0.14   0.01   0.15
     6   1     0.00  -0.08   0.31    -0.02  -0.03   0.10     0.07   0.15   0.21
     7   1    -0.02   0.01  -0.18     0.05   0.08  -0.10    -0.12   0.08  -0.21
     8   7    -0.01  -0.04   0.10     0.02   0.03  -0.02    -0.04   0.14   0.00
     9   6    -0.01  -0.01  -0.13    -0.01   0.09   0.04     0.03  -0.12  -0.05
    10   6    -0.15   0.15  -0.11    -0.04  -0.20  -0.14     0.14  -0.07   0.03
    11   1     0.08  -0.11  -0.10    -0.03   0.33  -0.09     0.08  -0.23   0.01
    12   1     0.02  -0.01  -0.30     0.03   0.12   0.30    -0.08  -0.17  -0.13
    13   1    -0.15   0.17  -0.22    -0.04  -0.12  -0.16     0.15  -0.23   0.05
    14   1    -0.18   0.15   0.06    -0.10  -0.24  -0.40     0.29  -0.01   0.12
    15   1    -0.24   0.25  -0.14    -0.01  -0.45  -0.01     0.08   0.06  -0.03
    16   6    -0.02  -0.03   0.11     0.04   0.02  -0.12    -0.07   0.16   0.05
    17   1     0.02  -0.02  -0.06     0.04   0.02  -0.11    -0.02   0.17  -0.17
    18   1    -0.14   0.09   0.17     0.02  -0.03  -0.16    -0.23   0.37   0.17
    19   1     0.05  -0.15   0.21     0.09   0.08  -0.15     0.02  -0.05   0.23
    20  17     0.09   0.05  -0.14     0.00  -0.02  -0.01    -0.06  -0.15  -0.03
                      4                      5                      6
                      A                      A                      A
 Frequencies --    129.2443               143.0663               175.1835
 Red. masses --      1.9378                 1.4363                12.0624
 Frc consts  --      0.0191                 0.0173                 0.2181
 IR Inten    --      3.5850                 0.9367                58.7906
  Atom  AN      X      Y      Z        X      Y      Z        X      Y      Z
     1   6     0.07   0.02   0.01    -0.02   0.00   0.01     0.12  -0.10   0.09
     2   6     0.05   0.06  -0.03    -0.02  -0.03   0.07     0.13  -0.13   0.06
     3   6     0.00  -0.02   0.12     0.00   0.02  -0.06     0.19  -0.07   0.01
     4   7     0.03  -0.04   0.10    -0.01   0.03  -0.08     0.16  -0.06   0.04
     5   1     0.10   0.01  -0.02    -0.03   0.00   0.02     0.10  -0.09   0.12
     6   1     0.07   0.10  -0.07    -0.02  -0.04   0.12     0.12  -0.15   0.06
     7   1    -0.04  -0.04   0.16     0.01   0.03  -0.10     0.22  -0.05  -0.04
     8   7     0.01   0.04   0.04    -0.01  -0.01   0.03     0.18  -0.10   0.03
     9   6     0.03  -0.07  -0.03    -0.01   0.02  -0.01     0.17   0.02  -0.03
    10   6    -0.11   0.02  -0.04     0.09  -0.01   0.02     0.10   0.04  -0.05
    11   1     0.15  -0.15  -0.02    -0.06   0.03   0.00     0.17   0.05  -0.04
    12   1     0.02  -0.08  -0.16    -0.02   0.01   0.04     0.23   0.04  -0.03
    13   1    -0.10  -0.06  -0.21     0.09  -0.01   0.12     0.09   0.13  -0.06
    14   1    -0.05   0.05   0.12     0.10  -0.02  -0.05     0.02   0.01  -0.07
    15   1    -0.29   0.13  -0.05     0.18  -0.04   0.00     0.14   0.00  -0.04
    16   6     0.00   0.08  -0.06    -0.01  -0.03   0.07     0.12  -0.03   0.05
    17   1    -0.06   0.12   0.30    -0.11  -0.04   0.55     0.19   0.03  -0.17
    18   1     0.21  -0.25  -0.26     0.37  -0.39  -0.12    -0.09   0.16   0.15
    19   1    -0.17   0.41  -0.35    -0.26   0.33  -0.26     0.16  -0.23   0.20
    20  17    -0.03  -0.04  -0.02    -0.01   0.01  -0.02    -0.46   0.16  -0.07
                      7                      8                      9
                      A                      A                      A
 Frequencies --    212.0846               229.6255               304.4921
 Red. masses --      1.2751                 2.9790                 2.0484
 Frc consts  --      0.0338                 0.0925                 0.1119
 IR Inten    --      1.3363                 1.5563                 5.2797
  Atom  AN      X      Y      Z        X      Y      Z        X      Y      Z
     1   6     0.05  -0.03   0.00    -0.01   0.02  -0.09    -0.03   0.07   0.03
     2   6     0.04   0.02  -0.02    -0.02  -0.03   0.13    -0.03   0.06   0.00
     3   6    -0.01  -0.03  -0.02    -0.03  -0.03   0.14    -0.02   0.08   0.02
     4   7     0.02  -0.05   0.00    -0.01   0.02  -0.09    -0.02   0.05   0.03
     5   1     0.09  -0.05   0.02    -0.01   0.06  -0.24    -0.04   0.07   0.04
     6   1     0.05   0.05  -0.01    -0.02  -0.03   0.14    -0.05   0.04  -0.02
     7   1    -0.05  -0.05  -0.02    -0.03  -0.04   0.17    -0.01   0.08   0.01
     8   7    -0.01   0.02  -0.03    -0.03  -0.06   0.23    -0.01   0.06  -0.01
     9   6     0.01   0.01   0.02     0.00   0.01  -0.07    -0.01  -0.15  -0.06
    10   6    -0.04   0.03   0.01     0.10   0.02  -0.02    -0.02  -0.03   0.01
    11   1    -0.05   0.06   0.00    -0.02  -0.02  -0.05     0.16  -0.35   0.00
    12   1     0.09   0.04   0.05    -0.02   0.00  -0.07    -0.17  -0.23  -0.27
    13   1    -0.08   0.54   0.23     0.09   0.18   0.19    -0.05   0.28   0.17
    14   1    -0.49  -0.16  -0.24    -0.02  -0.04  -0.14    -0.30  -0.15  -0.05
    15   1     0.40  -0.23   0.03     0.36  -0.06  -0.05     0.27  -0.11  -0.03
    16   6    -0.06   0.06   0.03    -0.02   0.04  -0.18     0.15  -0.12  -0.01
    17   1    -0.04   0.10   0.08     0.07   0.12  -0.37     0.05  -0.30  -0.05
    18   1    -0.03   0.06   0.04    -0.35  -0.06  -0.31     0.25  -0.13   0.01
    19   1    -0.13   0.05   0.01     0.22   0.13  -0.18     0.30  -0.11   0.02
    20  17     0.00  -0.02   0.00     0.00   0.00   0.00    -0.01   0.02   0.00
                     10                     11                     12
                      A                      A                      A
 Frequencies --    388.4327               436.5312               599.7856
 Red. masses --      3.2233                 2.6546                 3.7635
 Frc consts  --      0.2865                 0.2980                 0.7977
 IR Inten    --      5.2149                 8.5561                 2.5376
  Atom  AN      X      Y      Z        X      Y      Z        X      Y      Z
     1   6    -0.10  -0.03   0.14    -0.10   0.07  -0.04     0.00   0.06  -0.08
     2   6    -0.06  -0.04  -0.11    -0.02  -0.13   0.00    -0.03   0.01   0.04
     3   6     0.00  -0.01   0.13     0.15   0.06  -0.03    -0.04   0.11  -0.06
     4   7    -0.02   0.01   0.17     0.01   0.14  -0.01     0.10   0.05   0.09
     5   1    -0.19  -0.02   0.22    -0.25   0.12  -0.07    -0.11   0.11  -0.14
     6   1    -0.08  -0.05  -0.21    -0.07  -0.24   0.00     0.01   0.08   0.10
     7   1     0.05   0.00   0.19     0.31   0.13  -0.03    -0.03   0.14  -0.20
     8   7    -0.02  -0.03  -0.09     0.12  -0.09   0.00    -0.12  -0.03   0.01
     9   6     0.03   0.02  -0.15     0.00  -0.10   0.02     0.29  -0.01   0.09
    10   6     0.20   0.06  -0.10    -0.07  -0.06   0.04     0.04   0.02  -0.02
    11   1     0.21  -0.08  -0.14     0.17  -0.29   0.08     0.33  -0.04   0.10
    12   1    -0.03  -0.01  -0.27    -0.19  -0.19  -0.17     0.23  -0.04   0.04
    13   1     0.19   0.02   0.19    -0.08   0.09  -0.02     0.04   0.21  -0.37
    14   1     0.27   0.08  -0.16    -0.22  -0.11   0.06    -0.17  -0.06   0.05
    15   1     0.43   0.09  -0.19    -0.06  -0.09   0.06    -0.17  -0.06   0.09
    16   6    -0.10   0.02   0.01    -0.06   0.13   0.02    -0.22  -0.19  -0.04
    17   1    -0.07   0.09   0.07     0.07   0.35   0.08    -0.21  -0.19  -0.06
    18   1    -0.08   0.07   0.05    -0.19   0.16   0.02    -0.18  -0.18  -0.04
    19   1    -0.24  -0.03   0.01    -0.28   0.09  -0.01    -0.13  -0.16  -0.04
    20  17     0.02  -0.01   0.00     0.01  -0.01   0.00     0.00   0.00   0.00
                     13                     14                     15
                      A                      A                      A
 Frequencies --    636.7128               654.3568               703.0517
 Red. masses --      2.9895                 3.1151                 3.6538
 Frc consts  --      0.7141                 0.7859                 1.0641
 IR Inten    --     10.3839                14.6424                 3.9579
  Atom  AN      X      Y      Z        X      Y      Z        X      Y      Z
     1   6    -0.01  -0.02   0.09    -0.01   0.02  -0.21     0.18   0.11   0.01
     2   6     0.01   0.06  -0.24    -0.02  -0.03   0.10     0.21   0.03   0.02
     3   6     0.01   0.03  -0.13    -0.01  -0.01  -0.12     0.07   0.04   0.02
     4   7     0.00   0.00   0.02    -0.03  -0.10   0.28    -0.02   0.07   0.05
     5   1    -0.01  -0.07   0.30     0.02   0.08  -0.49     0.24   0.09   0.04
     6   1     0.01   0.08  -0.43    -0.04  -0.07   0.15     0.29   0.12   0.14
     7   1     0.04   0.17  -0.66    -0.03   0.10  -0.62     0.30   0.16  -0.05
     8   7     0.00  -0.07   0.26     0.02   0.01   0.01     0.02  -0.07  -0.03
     9   6    -0.01   0.00  -0.01    -0.06   0.02  -0.03    -0.22   0.04  -0.06
    10   6     0.00   0.00   0.00     0.01   0.01  -0.02    -0.06  -0.02   0.03
    11   1    -0.01   0.00  -0.01     0.06   0.02  -0.07    -0.10  -0.03  -0.05
    12   1    -0.01   0.00   0.01     0.00   0.04  -0.06    -0.24   0.03  -0.13
    13   1     0.00  -0.01   0.02     0.01  -0.10   0.21    -0.06  -0.20   0.35
    14   1     0.01   0.00   0.00     0.15   0.06  -0.07     0.15   0.05  -0.10
    15   1     0.01   0.01  -0.01     0.17   0.05  -0.09     0.14  -0.01  -0.03
    16   6     0.00   0.00   0.02     0.07   0.06   0.02    -0.19  -0.18  -0.05
    17   1     0.05   0.05  -0.04     0.06   0.04   0.01    -0.13  -0.09  -0.03
    18   1    -0.18  -0.11  -0.09     0.06   0.04   0.01    -0.17  -0.14  -0.02
    19   1     0.11   0.10  -0.02     0.07   0.06   0.02    -0.18  -0.19  -0.04
    20  17     0.00   0.00   0.00     0.00   0.00   0.00    -0.01   0.00   0.00
                     16                     17                     18
                      A                      A                      A
 Frequencies --    742.0618               802.6102               803.1302
 Red. masses --      1.3848                 1.3185                 1.2126
 Frc consts  --      0.4493                 0.5004                 0.4608
 IR Inten    --      7.1315                30.0442                12.4988
  Atom  AN      X      Y      Z        X      Y      Z        X      Y      Z
     1   6     0.00   0.03  -0.11     0.01   0.00  -0.09     0.01  -0.04   0.04
     2   6    -0.01   0.00   0.00     0.00   0.00   0.00     0.00   0.00   0.00
     3   6    -0.01  -0.03   0.14     0.00   0.01  -0.11    -0.01  -0.03   0.06
     4   7     0.00   0.00  -0.02     0.00  -0.02   0.04     0.00   0.00  -0.04
     5   1    -0.03  -0.18   0.73     0.00  -0.16   0.55     0.04   0.03  -0.27
     6   1    -0.02  -0.06   0.25     0.00  -0.02   0.11     0.01   0.03  -0.06
     7   1     0.01   0.13  -0.55    -0.05  -0.16   0.55    -0.02   0.06  -0.35
     8   7     0.00   0.01  -0.03     0.00  -0.01   0.04    -0.01   0.01  -0.02
     9   6     0.01  -0.01   0.00    -0.01   0.04   0.02     0.00   0.07   0.04
    10   6     0.00   0.00   0.00     0.00   0.02   0.00     0.00   0.03   0.02
    11   1     0.00   0.02  -0.01     0.08  -0.21   0.15     0.08  -0.35   0.26
    12   1     0.00   0.00   0.04    -0.03   0.01  -0.29    -0.06   0.01  -0.44
    13   1     0.00   0.02  -0.02     0.01  -0.10  -0.03     0.02  -0.14  -0.11
    14   1    -0.02  -0.01   0.03     0.08   0.03  -0.25     0.09   0.03  -0.40
    15   1    -0.01   0.02  -0.01    -0.03  -0.19   0.13    -0.09  -0.33   0.25
    16   6     0.01   0.01   0.00     0.01   0.00   0.01     0.01   0.01   0.00
    17   1     0.00   0.00   0.01     0.01   0.01  -0.02    -0.01  -0.01   0.01
    18   1     0.04   0.02   0.02    -0.03  -0.02  -0.02     0.04   0.02   0.01
    19   1    -0.02  -0.02   0.01     0.04   0.03   0.00     0.00  -0.01   0.01
    20  17     0.00   0.00   0.00     0.00   0.00   0.00     0.00   0.00   0.00
                     19                     20                     21
                      A                      A                      A
 Frequencies --    964.4286               977.6890              1030.4710
 Red. masses --      2.2980                 1.2742                 2.7606
 Frc consts  --      1.2593                 0.7176                 1.7271
 IR Inten    --      0.6323                39.5598                17.1676
  Atom  AN      X      Y      Z        X      Y      Z        X      Y      Z
     1   6     0.01   0.08   0.02    -0.01  -0.02   0.04    -0.06   0.02   0.02
     2   6     0.06   0.00  -0.01     0.03  -0.02  -0.13    -0.19   0.25   0.01
     3   6    -0.02  -0.05  -0.02    -0.02   0.02   0.00     0.14  -0.08  -0.02
     4   7    -0.10   0.00   0.03     0.00   0.01   0.01     0.00  -0.08  -0.01
     5   1     0.09   0.07  -0.02    -0.13   0.07  -0.19     0.51  -0.13  -0.10
     6   1     0.06  -0.05   0.13     0.06  -0.12   0.94    -0.40  -0.10   0.37
     7   1     0.06  -0.02   0.00    -0.06  -0.01   0.04     0.27  -0.05   0.02
     8   7     0.02  -0.04  -0.01    -0.02   0.00   0.01     0.11   0.01   0.01
     9   6    -0.09  -0.08   0.14     0.01   0.01  -0.01     0.00  -0.02  -0.01
    10   6     0.15   0.09  -0.14    -0.01  -0.01   0.01     0.00   0.00   0.00
    11   1    -0.24  -0.16   0.23     0.03   0.01  -0.02    -0.05  -0.02   0.01
    12   1    -0.26  -0.14   0.24     0.01   0.01  -0.02     0.09   0.02  -0.01
    13   1     0.15   0.34  -0.60    -0.01  -0.02   0.04     0.01  -0.01  -0.03
    14   1    -0.15  -0.02  -0.09     0.01   0.00   0.01     0.00   0.00  -0.03
    15   1    -0.15   0.07  -0.05     0.01  -0.01   0.01    -0.01  -0.02   0.02
    16   6     0.02   0.00   0.00     0.02   0.01   0.01    -0.03  -0.08  -0.01
    17   1     0.04   0.03   0.01     0.02   0.01  -0.02     0.09   0.11   0.02
    18   1    -0.01   0.00   0.00    -0.01  -0.02  -0.02    -0.23  -0.04  -0.01
    19   1    -0.01   0.00   0.00     0.07   0.05   0.00    -0.28  -0.08  -0.08
    20  17     0.00   0.00   0.00     0.00   0.00   0.00     0.00   0.00   0.00
                     22                     23                     24
                      A                      A                      A
 Frequencies --   1055.3106              1101.8645              1107.6218
 Red. masses --      3.2749                 1.9214                 1.5015
 Frc consts  --      2.1489                 1.3744                 1.0853
 IR Inten    --      2.8388                 2.7633                11.7969
  Atom  AN      X      Y      Z        X      Y      Z        X      Y      Z
     1   6    -0.07   0.32   0.07    -0.02   0.02   0.01     0.00  -0.06  -0.02
     2   6     0.09   0.03   0.02     0.00   0.01   0.00     0.01   0.05   0.02
     3   6    -0.09  -0.16  -0.04    -0.01   0.06   0.02    -0.07   0.07   0.01
     4   7    -0.07  -0.06  -0.01     0.05  -0.02  -0.04     0.00   0.01   0.01
     5   1    -0.23   0.40   0.10    -0.19   0.07   0.02    -0.12  -0.03   0.00
     6   1     0.00  -0.20  -0.08     0.02   0.05   0.01     0.19   0.41   0.03
     7   1    -0.35  -0.28  -0.08    -0.05   0.05   0.00    -0.12   0.05   0.00
     8   7     0.04  -0.08  -0.02     0.00  -0.01   0.00    -0.01  -0.08  -0.02
     9   6     0.10   0.00  -0.08     0.01  -0.13   0.15    -0.01   0.02  -0.03
    10   6    -0.03  -0.01   0.08    -0.10   0.09  -0.12     0.02  -0.01   0.02
    11   1    -0.03   0.09  -0.09    -0.09  -0.02   0.12    -0.01   0.00  -0.02
    12   1     0.40   0.12  -0.09     0.25  -0.04   0.14    -0.06   0.00  -0.02
    13   1    -0.02  -0.11   0.03    -0.08  -0.29   0.38     0.02   0.06  -0.08
    14   1     0.02   0.00  -0.07     0.37   0.25  -0.34    -0.07  -0.05   0.06
    15   1    -0.04  -0.15   0.17     0.34   0.03  -0.22    -0.07  -0.01   0.05
    16   6     0.05  -0.01   0.00     0.02  -0.02   0.00     0.12  -0.06  -0.01
    17   1     0.12   0.10   0.03     0.09   0.09   0.04     0.36   0.37   0.15
    18   1    -0.08   0.02   0.00    -0.09   0.03   0.01    -0.31   0.13   0.05
    19   1    -0.13  -0.03  -0.04    -0.14  -0.03  -0.04    -0.49  -0.10  -0.14
    20  17     0.00   0.00   0.00     0.00   0.00   0.00     0.00   0.00   0.00
                     25                     26                     27
                      A                      A                      A
 Frequencies --   1132.8563              1142.2773              1162.2736
 Red. masses --      1.5723                 1.4879                 1.3276
 Frc consts  --      1.1889                 1.1438                 1.0566
 IR Inten    --      0.8601                 4.3407                 8.9497
  Atom  AN      X      Y      Z        X      Y      Z        X      Y      Z
     1   6     0.02   0.01   0.01     0.08   0.03   0.01     0.00   0.00   0.00
     2   6     0.00   0.02   0.00    -0.03  -0.09  -0.03    -0.01   0.00  -0.01
     3   6    -0.03  -0.09  -0.02    -0.08   0.10   0.02     0.00   0.02   0.00
     4   7    -0.03   0.06  -0.02    -0.03   0.02   0.01     0.02   0.00   0.01
     5   1     0.18  -0.04  -0.01     0.72  -0.16  -0.03    -0.02   0.01  -0.01
     6   1    -0.02  -0.03   0.01    -0.24  -0.51  -0.07    -0.03  -0.06   0.05
     7   1    -0.27  -0.19  -0.07    -0.06   0.12   0.03    -0.12  -0.04   0.01
     8   7     0.01  -0.02   0.01    -0.04  -0.04  -0.01     0.02   0.00   0.08
     9   6     0.03   0.10   0.11     0.03  -0.01  -0.01    -0.02  -0.01  -0.01
    10   6    -0.03  -0.07  -0.07    -0.01   0.01   0.01     0.01   0.01   0.01
    11   1     0.52  -0.09   0.08    -0.02   0.04  -0.03    -0.05   0.01  -0.01
    12   1    -0.34  -0.06  -0.14     0.08   0.01   0.03     0.01   0.00   0.02
    13   1    -0.05   0.10   0.25    -0.01  -0.04   0.01     0.01  -0.01  -0.04
    14   1     0.05  -0.01   0.28     0.03   0.02  -0.06    -0.01   0.00  -0.03
    15   1     0.17   0.27  -0.33     0.01  -0.04   0.04    -0.03  -0.03   0.04
    16   6     0.01  -0.01  -0.01     0.05   0.00   0.01    -0.01   0.02  -0.14
    17   1     0.03   0.03   0.04     0.11   0.10   0.03    -0.17  -0.09   0.27
    18   1     0.01   0.05   0.03    -0.08   0.04   0.01     0.52   0.42   0.24
    19   1    -0.09  -0.06  -0.01    -0.12   0.00  -0.04    -0.31  -0.46   0.12
    20  17     0.00   0.00   0.00     0.00   0.00   0.00     0.00   0.00   0.00
                     28                     29                     30
                      A                      A                      A
 Frequencies --   1175.3730              1269.2828              1307.4770
 Red. masses --      1.6500                 1.4232                 1.3255
 Frc consts  --      1.3430                 1.3509                 1.3350
 IR Inten    --    134.4963                15.6294                45.1990
  Atom  AN      X      Y      Z        X      Y      Z        X      Y      Z
     1   6     0.00   0.01   0.00    -0.02  -0.03  -0.01    -0.10   0.05   0.01
     2   6     0.01   0.03   0.01    -0.01  -0.01   0.00    -0.01  -0.06  -0.01
     3   6    -0.01  -0.05  -0.02     0.03  -0.05  -0.01     0.05   0.06   0.02
     4   7    -0.13   0.00  -0.01    -0.05   0.09   0.01     0.00  -0.02   0.00
     5   1     0.15  -0.05   0.00     0.25  -0.12  -0.02     0.45  -0.13  -0.01
     6   1     0.16   0.33   0.06     0.16   0.31   0.05     0.27   0.46   0.07
     7   1     0.76   0.26   0.10    -0.31  -0.20  -0.06    -0.33  -0.08  -0.04
     8   7    -0.09  -0.09  -0.01     0.03  -0.01   0.00     0.03  -0.04  -0.01
     9   6     0.10   0.00   0.01     0.04  -0.07  -0.03     0.00   0.01   0.01
    10   6    -0.03   0.00   0.00    -0.02   0.09   0.04     0.00  -0.04  -0.02
    11   1     0.11   0.03  -0.01     0.27   0.21  -0.26    -0.28  -0.11   0.16
    12   1     0.14   0.01  -0.03    -0.27  -0.17   0.36     0.29   0.11  -0.19
    13   1    -0.02  -0.04   0.08     0.00  -0.17  -0.05     0.00   0.07   0.02
    14   1     0.07   0.03   0.00     0.06   0.09  -0.28    -0.01  -0.04   0.12
    15   1     0.07   0.00  -0.03     0.02  -0.20   0.20     0.00   0.09  -0.10
    16   6     0.04   0.07  -0.01    -0.02   0.00   0.00    -0.03   0.02   0.00
    17   1    -0.06  -0.07   0.05    -0.02   0.00  -0.02    -0.04   0.01  -0.01
    18   1     0.20   0.09   0.03     0.04  -0.03  -0.01     0.12  -0.05  -0.02
    19   1     0.06  -0.06   0.08     0.08   0.01   0.02     0.16  -0.01   0.07
    20  17     0.00   0.00   0.00     0.00   0.00   0.00     0.00   0.00   0.00
                     31                     32                     33
                      A                      A                      A
 Frequencies --   1343.8163              1382.4125              1392.3585
 Red. masses --      4.4159                 1.5866                 2.4008
 Frc consts  --      4.6984                 1.7865                 2.7422
 IR Inten    --     30.2535                 7.0998                 8.8308
  Atom  AN      X      Y      Z        X      Y      Z        X      Y      Z
     1   6    -0.02  -0.06  -0.02    -0.03   0.05   0.01    -0.03  -0.11  -0.03
     2   6     0.08  -0.15  -0.03    -0.01  -0.07  -0.02     0.08   0.10   0.03
     3   6     0.07  -0.04  -0.01     0.04  -0.02   0.00    -0.12   0.09   0.02
     4   7    -0.26   0.02   0.01     0.05  -0.03  -0.03    -0.12   0.01  -0.02
     5   1    -0.02  -0.08  -0.01     0.13   0.01   0.00    -0.13  -0.10  -0.03
     6   1     0.20  -0.02  -0.02     0.08   0.12   0.02    -0.06  -0.22  -0.03
     7   1     0.16   0.00   0.00     0.13   0.02   0.00    -0.08   0.13   0.03
     8   7     0.07   0.33   0.08    -0.06   0.06   0.02     0.18  -0.05  -0.01
     9   6     0.13   0.00  -0.01    -0.12  -0.04   0.07    -0.02  -0.04   0.05
    10   6    -0.02  -0.02  -0.01     0.04   0.00   0.03     0.01  -0.02   0.03
    11   1    -0.31  -0.05   0.14     0.60   0.31  -0.35     0.30   0.24  -0.21
    12   1     0.24   0.04  -0.11     0.32   0.11  -0.29     0.38   0.10  -0.29
    13   1    -0.02   0.02   0.00     0.05   0.06  -0.13     0.02   0.09  -0.19
    14   1     0.07   0.01   0.08    -0.07  -0.05  -0.14     0.05  -0.01  -0.12
    15   1     0.10   0.00  -0.06    -0.09   0.10   0.00     0.05   0.11  -0.06
    16   6    -0.01  -0.16  -0.03     0.03  -0.02   0.00    -0.09  -0.01   0.00
    17   1     0.15   0.11   0.08     0.01  -0.03   0.03     0.09   0.25  -0.04
    18   1    -0.31   0.24   0.18    -0.11   0.11   0.07     0.26  -0.16  -0.05
    19   1    -0.35   0.07  -0.28    -0.10   0.06  -0.09     0.29  -0.06   0.13
    20  17     0.00   0.00   0.00     0.00   0.00   0.00     0.00   0.00   0.00
                     34                     35                     36
                      A                      A                      A
 Frequencies --   1422.4360              1428.9501              1463.8048
 Red. masses --      1.3657                 2.0190                 1.3224
 Frc consts  --      1.6281                 2.4290                 1.6695
 IR Inten    --      6.2947                 7.4585                49.7516
  Atom  AN      X      Y      Z        X      Y      Z        X      Y      Z
     1   6     0.06  -0.01   0.00     0.13  -0.06  -0.01    -0.05  -0.02  -0.01
     2   6    -0.04   0.01   0.00    -0.07   0.03   0.00     0.07   0.02   0.01
     3   6     0.03  -0.04  -0.01     0.03  -0.09  -0.02     0.03   0.06   0.02
     4   7     0.01   0.07   0.02    -0.04   0.18   0.04    -0.04  -0.04  -0.01
     5   1    -0.06   0.03   0.01    -0.14   0.03   0.00     0.01  -0.05  -0.01
     6   1    -0.05   0.02   0.01    -0.10   0.02   0.02     0.03  -0.09  -0.01
     7   1    -0.08  -0.09  -0.02    -0.18  -0.18  -0.06    -0.11   0.01   0.00
     8   7    -0.03  -0.02   0.00    -0.02  -0.03  -0.01     0.02   0.00   0.00
     9   6     0.00  -0.01  -0.01    -0.03  -0.07   0.03     0.01   0.00   0.01
    10   6    -0.05  -0.06   0.10     0.04   0.02  -0.06     0.00   0.00   0.00
    11   1    -0.17  -0.03   0.05    -0.25   0.14  -0.03     0.05   0.10  -0.06
    12   1     0.12   0.04  -0.04     0.54   0.14  -0.34    -0.07  -0.03  -0.08
    13   1    -0.04   0.26  -0.51     0.03  -0.14   0.26     0.00   0.01  -0.01
    14   1     0.32   0.06  -0.38    -0.22  -0.07   0.24     0.01   0.01   0.02
    15   1     0.33   0.34  -0.27    -0.18  -0.13   0.10     0.00  -0.03   0.02
    16   6     0.02   0.02   0.00     0.02   0.03   0.01     0.06   0.08   0.02
    17   1    -0.05  -0.10  -0.01    -0.06  -0.13  -0.03    -0.32  -0.56  -0.13
    18   1    -0.06  -0.01  -0.03    -0.07  -0.06  -0.07    -0.29  -0.25  -0.27
    19   1    -0.07  -0.01   0.00    -0.09  -0.04   0.03    -0.45  -0.24   0.09
    20  17     0.00   0.00   0.00     0.00   0.00   0.00     0.00   0.00   0.00
                     37                     38                     39
                      A                      A                      A
 Frequencies --   1487.9972              1492.0462              1494.0501
 Red. masses --      1.0915                 1.0517                 1.0457
 Frc consts  --      1.4238                 1.3794                 1.3753
 IR Inten    --      5.6196                 6.0117                12.8987
  Atom  AN      X      Y      Z        X      Y      Z        X      Y      Z
     1   6     0.02   0.02   0.00     0.00   0.01   0.00     0.01   0.01   0.00
     2   6    -0.02  -0.03  -0.01    -0.01   0.00   0.00    -0.01   0.00   0.00
     3   6     0.01  -0.01   0.00     0.01   0.01   0.00     0.01   0.00   0.00
     4   7     0.00  -0.01   0.00     0.01  -0.02   0.00     0.01  -0.01   0.00
     5   1    -0.02   0.04   0.01     0.00   0.02   0.00    -0.01   0.02   0.01
     6   1     0.00   0.02   0.00     0.00   0.01   0.00    -0.01   0.01   0.00
     7   1     0.04   0.00   0.00    -0.01   0.00   0.00    -0.01   0.00  -0.01
     8   7    -0.02   0.05   0.00    -0.01  -0.01   0.00    -0.01   0.00   0.00
     9   6     0.00   0.00   0.00     0.01   0.01   0.03     0.01  -0.02   0.02
    10   6     0.00   0.00   0.00    -0.02   0.04   0.00    -0.02  -0.02  -0.03
    11   1     0.01   0.02  -0.01    -0.13   0.24  -0.07    -0.13   0.29  -0.13
    12   1    -0.03  -0.01  -0.01    -0.16  -0.07  -0.28    -0.17  -0.10  -0.25
    13   1     0.00  -0.01  -0.01     0.03  -0.37  -0.41    -0.04   0.52   0.05
    14   1     0.00   0.00   0.00    -0.17  -0.01   0.36     0.51   0.21   0.20
    15   1     0.01   0.00   0.00     0.55  -0.21  -0.03    -0.10  -0.32   0.20
    16   6     0.01   0.02  -0.03     0.00   0.00   0.00     0.00   0.00   0.00
    17   1     0.06   0.29   0.49     0.02   0.03   0.00     0.02   0.04   0.01
    18   1    -0.21  -0.35  -0.30     0.03   0.03   0.03     0.03   0.03   0.03
    19   1     0.21  -0.47   0.37     0.03   0.03  -0.02     0.04   0.02  -0.01
    20  17     0.00   0.00   0.00     0.00   0.00   0.00     0.00   0.00   0.00
                     40                     41                     42
                      A                      A                      A
 Frequencies --   1507.1014              1510.2603              1583.6143
 Red. masses --      1.0969                 1.0984                 3.7174
 Frc consts  --      1.4679                 1.4761                 5.4928
 IR Inten    --      9.7703                 9.6183                35.8539
  Atom  AN      X      Y      Z        X      Y      Z        X      Y      Z
     1   6     0.03   0.02   0.01     0.01   0.01   0.00     0.23   0.04   0.02
     2   6    -0.03  -0.04  -0.01     0.00   0.00   0.00    -0.14  -0.02  -0.01
     3   6     0.00  -0.01   0.00     0.02   0.01   0.00     0.21   0.17   0.05
     4   7     0.00  -0.01   0.00    -0.01  -0.02   0.00    -0.21  -0.17  -0.05
     5   1    -0.02   0.04   0.01    -0.02   0.02   0.00    -0.43   0.28   0.05
     6   1     0.01   0.07   0.01    -0.01   0.00   0.00    -0.11   0.16   0.03
     7   1     0.05   0.01   0.01    -0.02  -0.01   0.00    -0.45  -0.07  -0.03
     8   7    -0.01   0.03   0.02    -0.01  -0.01   0.00    -0.03  -0.07  -0.02
     9   6     0.00   0.00   0.00     0.07  -0.01   0.04     0.01   0.03   0.00
    10   6     0.00   0.00   0.00     0.02  -0.01   0.02     0.01   0.00   0.00
    11   1    -0.01   0.03  -0.01    -0.31   0.38  -0.09     0.38  -0.12  -0.03
    12   1    -0.05  -0.02  -0.02    -0.35  -0.19  -0.36     0.01   0.05   0.16
    13   1     0.00  -0.01   0.01     0.01  -0.11   0.20     0.01   0.01  -0.02
    14   1    -0.02  -0.01  -0.03    -0.20  -0.11  -0.37    -0.01  -0.01   0.01
    15   1    -0.02   0.03  -0.01    -0.24   0.34  -0.11    -0.02  -0.01   0.02
    16   6    -0.02   0.01   0.04     0.00  -0.01   0.00    -0.01   0.01   0.00
    17   1     0.27   0.25  -0.56     0.00   0.02   0.05    -0.03   0.00   0.03
    18   1     0.45  -0.34  -0.15     0.00   0.06   0.04     0.05   0.12   0.09
    19   1    -0.36  -0.22   0.08     0.07   0.05  -0.02     0.14   0.13  -0.04
    20  17     0.00   0.00   0.00     0.00   0.00   0.00     0.00   0.00   0.00
                     43                     44                     45
                      A                      A                      A
 Frequencies --   1604.3238              2888.1346              2943.6994
 Red. masses --      3.3852                 1.1169                 1.0655
 Frc consts  --      5.1336                 5.4889                 5.4401
 IR Inten    --     15.6209               564.9286               593.7281
  Atom  AN      X      Y      Z        X      Y      Z        X      Y      Z
     1   6     0.14   0.07   0.02     0.01   0.00   0.00     0.00   0.00   0.00
     2   6    -0.20  -0.13  -0.04    -0.09   0.04   0.00    -0.03   0.01   0.00
     3   6    -0.23  -0.01  -0.01     0.00   0.00   0.00     0.00   0.00   0.00
     4   7     0.04  -0.03  -0.01     0.00   0.00   0.00     0.00   0.00   0.00
     5   1    -0.06   0.17   0.04     0.00   0.02   0.01     0.00   0.01   0.00
     6   1     0.08   0.54   0.13     0.84  -0.42  -0.05     0.28  -0.13  -0.01
     7   1     0.27   0.22   0.06     0.01   0.00   0.00     0.00   0.00   0.00
     8   7     0.25   0.02   0.01     0.00   0.00   0.00     0.00   0.00   0.00
     9   6     0.00   0.01   0.00     0.00   0.00   0.00     0.00   0.00   0.00
    10   6     0.00   0.00   0.00     0.00   0.00   0.00     0.00   0.00   0.00
    11   1    -0.02   0.04   0.00     0.00   0.00  -0.01     0.00   0.00   0.00
    12   1    -0.11  -0.04  -0.02     0.00   0.00   0.00     0.00   0.00   0.00
    13   1     0.00  -0.01   0.01     0.00   0.00   0.00     0.00   0.00   0.00
    14   1     0.00   0.00  -0.01     0.00   0.00   0.00     0.00   0.00   0.00
    15   1     0.00   0.01   0.00     0.00   0.00   0.00     0.00   0.00   0.00
    16   6    -0.01   0.02   0.00     0.02  -0.01   0.01    -0.06   0.02  -0.01
    17   1    -0.27  -0.40  -0.01    -0.26   0.16  -0.06     0.74  -0.48   0.16
    18   1    -0.23   0.00  -0.05    -0.01  -0.03   0.04     0.03   0.12  -0.18
    19   1    -0.09   0.05  -0.04     0.01  -0.03  -0.05    -0.04   0.13   0.19
    20  17     0.00   0.00   0.00     0.00   0.00   0.00     0.00   0.00   0.00
                     46                     47                     48
                      A                      A                      A
 Frequencies --   3043.2427              3068.3606              3093.2099
 Red. masses --      1.0350                 1.0602                 1.0773
 Frc consts  --      5.6476                 5.8811                 6.0732
 IR Inten    --      7.9522                14.4105                36.8750
  Atom  AN      X      Y      Z        X      Y      Z        X      Y      Z
     1   6     0.00   0.00   0.00     0.00   0.00   0.00     0.00   0.00   0.00
     2   6     0.00   0.00   0.00     0.00   0.00   0.00     0.00   0.00   0.00
     3   6     0.00   0.00   0.00     0.00   0.00   0.00     0.00   0.00   0.00
     4   7     0.00   0.00   0.00     0.00   0.00   0.00     0.00   0.00   0.00
     5   1     0.00   0.00   0.00     0.00   0.00   0.00     0.00   0.00   0.00
     6   1     0.00   0.00   0.00     0.00   0.00   0.00    -0.03   0.01   0.00
     7   1     0.00   0.00   0.00     0.00   0.01   0.00     0.00  -0.01   0.00
     8   7     0.00   0.00   0.00     0.00   0.00   0.00     0.00   0.00   0.00
     9   6     0.00   0.00   0.00    -0.04   0.02  -0.05     0.00   0.00   0.00
    10   6    -0.02  -0.02   0.04     0.01   0.00   0.00     0.00   0.00   0.00
    11   1     0.01   0.02   0.04     0.19   0.38   0.62     0.00  -0.01  -0.01
    12   1     0.01  -0.03   0.00     0.23  -0.59   0.03     0.00   0.00   0.00
    13   1     0.57   0.03   0.03    -0.14  -0.01  -0.01     0.00   0.00   0.00
    14   1    -0.21   0.52  -0.02     0.00   0.01   0.00     0.00   0.00   0.00
    15   1    -0.16  -0.31  -0.49    -0.01  -0.02  -0.03     0.00   0.00   0.01
    16   6     0.00   0.00   0.00     0.00   0.00   0.00     0.02  -0.07   0.02
    17   1     0.00   0.00   0.00     0.00   0.00   0.00    -0.24   0.15  -0.05
    18   1     0.00   0.00   0.00     0.00   0.00  -0.01     0.10   0.42  -0.62
    19   1     0.00   0.00   0.00     0.00   0.00   0.01    -0.13   0.32   0.47
    20  17     0.00   0.00   0.00     0.00   0.00   0.00     0.00   0.00   0.00
                     49                     50                     51
                      A                      A                      A
 Frequencies --   3102.4226              3115.9998              3126.0328
 Red. masses --      1.1050                 1.1019                 1.1058
 Frc consts  --      6.2665                 6.3038                 6.3667
 IR Inten    --      0.2306                18.5433                17.0062
  Atom  AN      X      Y      Z        X      Y      Z        X      Y      Z
     1   6     0.00   0.00   0.00     0.00   0.00   0.00     0.00   0.00   0.00
     2   6     0.00   0.00   0.00     0.00   0.00   0.00     0.00   0.00   0.00
     3   6     0.00   0.00   0.00     0.00   0.00   0.00     0.00   0.00   0.00
     4   7     0.00   0.00   0.00     0.00   0.00   0.00     0.00   0.00   0.00
     5   1     0.00   0.00   0.00     0.00   0.00   0.00     0.00   0.01   0.00
     6   1     0.00   0.00   0.00     0.00   0.00   0.00     0.00   0.00   0.00
     7   1     0.00   0.00   0.00     0.00   0.00   0.00     0.00   0.00   0.00
     8   7     0.00   0.00   0.00     0.00   0.00   0.00     0.00   0.00   0.00
     9   6     0.01  -0.06  -0.03    -0.01   0.00  -0.01    -0.01   0.06   0.03
    10   6     0.00   0.05   0.03    -0.09   0.01  -0.03    -0.01   0.06   0.03
    11   1     0.12   0.22   0.39     0.03   0.07   0.12    -0.11  -0.20  -0.36
    12   1    -0.21   0.54  -0.04     0.02  -0.04   0.00     0.18  -0.46   0.03
    13   1    -0.02   0.01   0.01     0.80   0.05   0.03     0.05   0.01   0.01
    14   1     0.18  -0.44   0.03     0.12  -0.35   0.01     0.21  -0.53   0.04
    15   1    -0.12  -0.22  -0.38     0.10   0.22   0.36    -0.13  -0.23  -0.40
    16   6     0.00   0.00   0.00     0.00   0.00   0.00     0.00   0.00   0.00
    17   1     0.00   0.00   0.00     0.00   0.00   0.00     0.00   0.00   0.00
    18   1     0.00   0.00   0.00     0.00   0.00   0.00     0.00   0.00   0.00
    19   1     0.00   0.00   0.00     0.00   0.00   0.00     0.00   0.00   0.00
    20  17     0.00   0.00   0.00     0.00   0.00   0.00     0.00   0.00   0.00
                     52                     53                     54
                      A                      A                      A
 Frequencies --   3138.7431              3278.6109              3284.2770
 Red. masses --      1.1071                 1.0991                 1.1020
 Frc consts  --      6.4260                 6.9609                 7.0037
 IR Inten    --      8.1394                14.4845                 0.6913
  Atom  AN      X      Y      Z        X      Y      Z        X      Y      Z
     1   6     0.00   0.00   0.00    -0.01  -0.03  -0.01    -0.03  -0.08  -0.02
     2   6     0.00   0.00   0.00     0.00   0.00   0.00     0.01   0.00   0.00
     3   6     0.00   0.00   0.00     0.03  -0.08  -0.02    -0.01   0.03   0.01
[...]
 32690,-0.13504054,-0.02918647,0.01048413,-0.29637618,0.10817853,0.0485
 9518,-0.10402677,-0.02327211,0.01951876,-0.00532952,0.00138614,0.00220
 615,0.01397124,0.02090950,-0.00145882,0.00464601,-0.00208769,-0.000662
 05,0.79186284,-0.08682487,-0.02584435,0.01237858,-0.00818434,-0.245111
 13,-0.01894908,0.10387001,-0.18367762,-0.02825635,0.01438364,-0.015714
 12,-0.00824779,-0.00174171,0.00194095,-0.00017428,-0.00860525,-0.02055
 076,0.00006716,0.02813023,-0.00725728,-0.00542418,0.02080399,0.6227186
 4,-0.00026698,0.00081699,0.01107247,0.01098495,-0.01243647,-0.06919370
 ,0.04781987,-0.03004774,-0.08012216,0.02276852,0.00254559,0.01063246,0
 .00157732,-0.00064417,0.00524623,-0.00311513,-0.00665205,0.00002088,0.
 00177685,-0.00017483,-0.00081798,-0.10344234,0.04480061,0.17609561,-0.
 00851184,0.01267925,0.00284963,0.00441909,-0.00029603,-0.00021485,-0.0
 2795543,0.00047419,0.00492874,-0.18629008,0.01749062,0.02156452,0.0010
 4980,-0.00142393,-0.00073754,-0.00091443,0.00090057,0.00043383,0.00201
 598,0.00086287,-0.00078427,0.00367896,-0.00400168,-0.00069327,0.445114
 19,0.03006897,0.00134807,-0.00454519,0.00201884,-0.00870772,-0.0012209
 5,-0.01403260,0.01565663,0.00395184,0.02082815,-0.11498881,-0.00695001
 ,-0.00035766,0.00056440,0.00020483,0.00001838,0.00120549,0.00027399,-0
 .00102586,0.00001466,0.00075479,-0.00874568,-0.00211713,0.00012493,0.0
 3554069,0.62739207,0.00556322,-0.00188674,-0.00454927,-0.00074729,-0.0
 0278899,0.00212998,0.00558436,0.00165238,-0.00693502,0.02289097,-0.008
 57156,-0.06425200,-0.00059110,0.00037268,-0.00060179,0.00052522,-0.000
 18522,0.00128304,-0.00105065,0.00015844,-0.00200615,-0.00123047,0.0024
 3361,0.00471173,-0.03394915,-0.00716064,0.52572857,0.00077261,-0.00188
 924,-0.00192527,-0.00085291,-0.00085495,0.00028735,0.00154953,0.003400
 02,-0.00312091,-0.03898665,-0.00021466,-0.02812522,-0.00010673,0.00012
 473,0.00022948,0.00027611,-0.00015911,0.00010644,-0.00018860,-0.000118
 17,-0.00018371,-0.00199674,0.00085687,0.00149036,-0.09575320,-0.005185
 63,-0.04148507,0.54447985,0.00037513,0.00094077,0.00038004,0.00022249,
 0.00064360,-0.00036825,-0.00207478,-0.00121286,0.00057726,0.00778447,0
 .00230759,0.00725510,0.00013182,-0.00015790,0.00033528,-0.00002089,0.0
 0003816,-0.00015701,0.00004117,0.00009082,-0.00036776,0.00153003,-0.00
 076872,0.00007243,-0.00648828,-0.08399858,-0.00873707,-0.00322912,0.57
 377174,-0.00002872,0.00124432,0.00061191,0.00117096,0.00059843,-0.0002
 0243,-0.00058364,-0.00116711,0.00066903,-0.00062518,0.00284875,0.00961
 194,-0.00002759,-0.00002297,0.00014461,-0.00017233,0.00016374,-0.00006
 439,0.00008167,-0.00004639,0.00018815,0.00213431,-0.00135965,-0.000981
 39,-0.04863552,-0.00835716,-0.17022457,-0.05171717,-0.00344538,0.50285
 001,0.00200805,-0.00158125,-0.00075745,-0.00087765,-0.00103627,-0.0000
 9035,0.00006460,0.00423200,0.00298513,-0.02768940,-0.02348546,0.023475
 39,0.00010927,0.00046217,0.00035633,0.00010077,0.00001589,-0.00012642,
 0.00000499,-0.00006576,0.00019321,-0.00279262,0.00038472,-0.00010819,-
 0.07672803,-0.05192703,0.06093062,0.00779979,0.01206195,-0.01335132,0.
 09762758,0.00035768,0.00095623,-0.00042258,-0.00025517,0.00052182,-0.0
 0018377,-0.00020118,-0.00068751,-0.00041162,0.00635792,0.00715861,-0.0
 0795296,-0.00007227,-0.00000741,0.00019697,0.00011918,-0.00007827,0.00
 009486,0.00027348,0.00014174,0.00019427,0.00126746,-0.00004767,-0.0003
 7411,-0.06056934,-0.15832153,0.11623088,0.00159426,0.00300411,-0.00299
 908,0.06131219,0.16280802,-0.00031177,0.00057909,0.00058178,0.00052139
 ,0.00029061,-0.00001535,-0.00125704,-0.00094998,-0.00016011,0.00462993
 ,0.00207638,-0.00090856,0.00016619,-0.00033846,-0.00023167,0.00001501,
 -0.00001144,-0.00001163,0.00009030,0.00003788,0.00005511,0.00025248,-0
 .00065510,-0.00021644,0.06546475,0.11398890,-0.17631915,0.00797658,0.0
 1823544,-0.02051351,-0.06917857,-0.12480409,0.18978870,-0.00386910,-0.
 00346112,0.00136758,-0.00160716,0.00180211,0.00032921,0.00185495,0.001
 47865,-0.00023564,-0.01051552,0.04065675,0.01328016,0.00000908,0.00011
 929,0.00000428,0.00008620,-0.00045611,-0.00034447,-0.00024390,-0.00042
 294,0.00010172,-0.00013236,0.00059599,0.00024485,-0.04939954,-0.006068
 40,0.00136204,0.00075009,-0.01744917,-0.00677127,0.00126196,-0.0108748
 0,-0.00541885,0.06262106,0.00063417,0.00189589,-0.00036756,0.00004085,
 -0.00018800,-0.00004529,-0.00152285,0.00082520,0.00045198,0.00246232,-
 0.00881778,-0.00173894,-0.00015954,0.00022868,0.00006389,-0.00003048,0
 .00019478,0.00003782,0.00033126,0.00048155,-0.00033941,0.00060097,-0.0
 0006816,0.00022323,0.00616642,-0.28008210,-0.08920396,-0.00116918,0.00
 078332,-0.00027004,0.00024323,-0.01750245,-0.00708744,-0.00717105,0.29
 985090,-0.00016478,0.00103117,0.00055754,0.00028085,0.00003649,0.00031
 930,-0.00083968,-0.00037515,0.00056348,0.00192242,-0.00549465,-0.00276
 185,0.00004425,-0.00012510,-0.00018018,0.00001020,0.00006151,-0.000038
 30,0.00032389,0.00016912,0.00018505,0.00033351,-0.00023152,-0.00028958
 ,0.00406783,-0.08815501,-0.08353751,-0.00091434,-0.02695786,-0.0111552
 7,-0.00168104,0.02062949,0.00947068,-0.00129861,0.09859559,0.08888055,
 0.00049543,-0.00084291,-0.00030918,-0.00041903,-0.00027958,0.00011669,
 0.00108251,0.00084507,-0.00058231,-0.00212143,-0.00052547,-0.00331844,
 -0.00001530,0.00001179,0.00001510,0.00016149,-0.00009740,-0.00001757,-
 0.00003851,0.00001872,0.00000853,-0.00070557,0.00048156,0.00031683,-0.
 01511722,0.00392328,0.00527687,-0.28702775,0.06163305,0.04676802,0.000
 46813,0.00032220,-0.00015264,0.00028475,-0.00048076,0.00013764,0.31181
 613,-0.00000370,-0.00008052,-0.00003121,-0.00030314,-0.00003938,0.0001
 9454,0.00026761,0.00011152,0.00000050,-0.00068662,0.00071194,-0.000798
 53,-0.00002016,0.00015157,-0.00022052,-0.00001708,-0.00000261,0.000054
 88,0.00000079,0.00002461,0.00004486,0.00004783,0.00028729,0.00003184,-
 0.00270936,-0.00110044,0.00056794,0.06210200,-0.06238679,-0.01203437,0
 .00009009,0.00007629,0.00011523,-0.00000974,0.00014743,0.00036003,-0.0
 6778598,0.06290959,0.00013654,-0.00064835,-0.00023061,-0.00052092,-0.0
 0028199,0.00018354,0.00050511,0.00098282,-0.00063977,-0.00558932,-0.00
 099242,-0.00476484,0.00000235,0.00009142,-0.00009918,0.00007023,-0.000
 06726,0.00001062,-0.00004288,-0.00003142,-0.00010375,-0.00102667,0.000
 50470,0.00042953,-0.02571724,0.00754603,0.00693568,0.04935635,-0.01265
 896,-0.05780183,0.00075495,0.00057893,0.00095789,0.00047044,-0.0003947
 8,0.00116460,-0.05015792,0.01391740,0.06021456,-0.00023914,0.00022997,
 0.00007916,-0.00016569,0.00007018,0.00012913,-0.00028628,-0.00001085,0
 .00013663,0.00186755,-0.00125757,0.00057477,-0.00016838,0.00028989,-0.
 00038962,-0.00009660,0.00006395,-0.00000502,0.00005816,0.00004720,-0.0
 0001822,0.00024689,0.00008041,-0.00005848,-0.00154037,-0.01803604,-0.0
 0806492,-0.04720158,0.00751817,0.00359119,0.00045470,0.00057889,0.0009
 0292,-0.00140692,-0.00000590,-0.00334133,0.00082843,0.02930917,0.01113
 117,0.04789123,-0.00008695,-0.00011542,0.00028308,-0.00025163,-0.00004
 190,0.00018947,0.00033408,0.00015587,-0.00017631,-0.00033112,0.0001863
 0,0.00007878,0.00026774,0.00012307,-0.00005991,-0.00001744,-0.00000668
 ,0.00003544,0.00006811,0.00000241,0.00006073,-0.00012283,0.00027085,-0
 .00004443,0.00007972,0.00002159,-0.00002391,0.00597942,-0.27952554,-0.
 08929657,-0.00037180,0.00075833,-0.00046996,0.00052686,0.00156725,0.00
 033146,0.00001833,-0.00624429,-0.00162238,-0.00744862,0.30051595,-0.00
 007275,-0.00039392,0.00017518,-0.00041795,0.00009925,0.00012337,0.0001
 2362,0.00003822,0.00017873,0.00133746,0.00034496,0.00106398,-0.0002312
 7,0.00028296,-0.00015086,-0.00002726,0.00000335,-0.00001043,0.00003901
 ,0.00007176,-0.00011353,0.00009693,0.00037406,0.00005697,0.00098356,-0
 .02853563,-0.01240474,0.00195416,-0.08730879,-0.08190708,0.00069158,0.
 00006207,0.00103839,-0.00358058,0.00039974,-0.00408297,0.00016291,-0.0
 0472175,-0.00276979,0.00037536,0.09806891,0.08962203,-0.00014450,0.000
 22381,0.00026405,0.00008314,0.00000521,-0.00004940,-0.00015046,-0.0004
 6097,0.00010092,0.00280233,0.00057357,0.00033910,0.00002248,-0.0000416
 4,-0.00002020,-0.00007112,0.00003287,0.00001293,-0.00001791,-0.0000473
 4,-0.00012707,0.00002522,-0.00000951,-0.00004322,0.00496140,0.01299081
 ,-0.01519838,-0.08340688,-0.06196489,0.06818402,-0.00162023,-0.0001850
 9,-0.00364779,0.00051969,-0.00001876,0.00110107,-0.00964246,-0.0202922
 2,0.02064187,-0.00029675,0.00134514,-0.00144350,0.08690120,0.00002662,
 -0.00032992,0.00006571,0.00006703,0.00004667,0.00004505,0.00027208,0.0
 0014107,0.00015313,0.00019229,0.00006419,-0.00029345,-0.00009817,0.000
 08557,-0.00002102,0.00000573,-0.00000629,0.00001350,-0.00003974,0.0000
 0940,0.00002415,0.00009300,-0.00004157,-0.00004980,0.00175996,0.002144
 53,-0.00279010,-0.06142193,-0.15346044,0.11435040,-0.00072580,0.001259
 10,-0.00093507,0.00071841,0.00073675,0.00009745,0.00266133,0.00542162,
 -0.00700787,-0.01140530,-0.01768201,0.02116921,0.06789981,0.16157511,-
 0.00003579,-0.00011839,0.00010207,-0.00007979,-0.00013659,-0.00009132,
 -0.00012793,0.00002376,0.00029516,0.00128170,-0.00042940,0.00193661,0.
 00000510,-0.00004475,-0.00004548,-0.00002865,-0.00000475,-0.00001323,-
 0.00008896,-0.00003346,-0.00016830,-0.00044528,0.00013236,0.00002684,0
 .01078190,0.01833532,-0.02222321,0.06544213,0.11325670,-0.17098174,-0.
 00368391,-0.00114520,-0.00355236,0.00044692,-0.00026240,0.00092461,0.0
 0163615,0.00255467,-0.00365936,-0.00501529,-0.00735266,0.00923093,-0.0
 7009035,-0.12477913,0.18824098,0.00244857,0.00124897,0.00097370,-0.002
 70098,-0.01318466,-0.00114480,-0.02990232,-0.00642152,0.00367281,0.002
 39536,0.00277866,-0.00050172,0.00069962,-0.00010916,0.00007566,0.00198
 851,0.00066160,-0.00080759,0.00215204,-0.00047507,-0.00061677,-0.17357
 447,-0.03203783,0.01296742,-0.00057373,0.00014226,0.00053575,0.0002879
 5,-0.00013530,-0.00028647,0.00009344,-0.00000074,-0.00003166,0.0001125
 5,-0.00009123,0.00000271,0.00015625,-0.00002702,0.00010505,-0.00008947
 ,-0.00003205,-0.00002937,-0.00004112,0.00001765,0.00001728,0.44782893,
 -0.00142043,-0.00475325,-0.00116429,-0.02866845,-0.00642479,0.00511696
 ,0.01120548,0.01816253,-0.00036327,0.00750541,-0.00373627,-0.00039592,
 -0.00091191,0.00040956,-0.00006578,0.00267891,-0.00022252,-0.00074751,
 0.00029469,0.00029182,-0.00064628,-0.03525871,-0.11885683,-0.00062178,
 -0.00055733,0.00156612,0.00010307,0.00030233,-0.00010327,-0.00034196,0
 .00051401,-0.00009700,-0.00006720,-0.00002344,-0.00004652,0.00000880,0
 .00013277,0.00000423,0.00015450,-0.00002147,0.00002398,0.00003790,-0.0
 0004435,0.00000306,0.00002723,-0.05325481,0.58314151,-0.00059611,0.000
 60021,0.00403876,-0.00145262,0.00259225,-0.00189668,0.00827484,0.00403
 089,-0.00415446,-0.00030476,-0.00345557,0.00243491,0.00021030,-0.00007
 651,0.00109675,-0.00039952,-0.00009856,-0.00187998,-0.00099665,0.00023
 006,-0.00138223,0.01254982,0.00039274,-0.06523912,0.00024136,-0.000104
 33,0.00240964,0.00056268,-0.00009414,-0.00018500,-0.00045867,0.0003220
 5,0.00001937,-0.00012786,-0.00001120,-0.00000161,0.00004881,-0.0000256
 3,0.00013368,-0.00000851,-0.00000499,-0.00002713,-0.00001508,-0.000021
 50,-0.00004129,0.02191163,0.00102746,0.57428632,0.00007167,0.00085616,
 -0.00006837,0.00077132,0.00100771,0.00041596,-0.00234790,-0.00369358,0
 .00103190,-0.00128225,0.00079689,0.00023377,0.00014038,-0.00005687,-0.
 00010584,0.00096960,-0.00125165,-0.00025392,-0.00023345,0.00012060,-0.
 00002153,-0.02961615,0.02142633,0.01495415,-0.00011294,-0.00024190,-0.
 00013533,-0.00006771,0.00000242,0.00004373,-0.00004461,0.00000165,0.00
 000281,0.00001232,0.00000230,0.00000246,-0.00000018,-0.00000460,-0.000
 02576,-0.00000438,0.00000101,-0.00000181,-0.00000270,0.00000533,-0.000
 00863,-0.12537706,0.08648764,0.05826216,0.14886711,-0.00038446,-0.0004
 3684,0.00024990,0.00039529,0.00149816,0.00005946,-0.00084464,-0.003364
 75,0.00001668,-0.00287126,-0.00065971,-0.00015113,-0.00011219,0.000043
 96,0.00001877,-0.00436108,0.00082327,0.00152643,0.00011174,-0.00004611
 ,0.00016498,-0.01383086,0.01462466,0.00967115,0.00048781,-0.00062653,-
 0.00037234,-0.00019535,0.00010041,0.00013585,-0.00016537,0.00002211,0.
 00002851,0.00003137,0.00000368,-0.00000784,-0.00008195,0.00001260,-0.0
 0007817,0.00001686,-0.00001665,0.00000293,0.00002959,-0.00000138,0.000
 00484,0.10242452,-0.17051501,-0.07867013,-0.09448140,0.17175605,0.0000
 2018,-0.00039787,-0.00020970,0.00032855,-0.00029990,0.00058528,-0.0002
 6565,-0.00025444,0.00004344,-0.00037224,0.00001828,0.00040485,-0.00008
 453,0.00002078,-0.00002828,-0.00106764,0.00064201,0.00084632,0.0001797
 7,-0.00005072,-0.00016605,0.00206187,-0.00002007,-0.00153897,0.0001496
 2,-0.00013238,0.00001140,-0.00002716,0.00001630,0.00003309,-0.00006113
 ,0.00000360,0.00000343,0.00000279,0.00000122,-0.00000630,-0.00001924,-
 0.00000006,-0.00001608,0.00000087,-0.00001091,0.00000429,0.00000758,0.
 00000692,0.00000622,0.06363556,-0.07376955,-0.10009374,-0.06709169,0.0
 7820154,0.10363852,-0.00164051,0.00022274,0.00087093,-0.00040289,0.002
 73141,-0.00098478,0.00262247,-0.00147475,-0.00195519,-0.00138975,-0.00
 207817,0.00087604,-0.00008292,0.00002228,0.00027389,-0.00042997,0.0001
 5129,-0.00011345,-0.00031461,0.00019723,-0.00042875,-0.02491402,-0.012
 84946,-0.02633935,0.00025155,-0.00025794,0.00044944,0.00004970,0.00003
 148,0.00001696,-0.00018810,0.00007487,-0.00000037,-0.00004794,0.000028
 74,-0.00000749,-0.00002087,0.00000052,0.00000066,0.00001612,0.00000432
 ,0.00000708,0.00000790,-0.00001016,-0.00001057,-0.07562451,-0.01797198
 ,-0.07999945,0.00974395,0.00112448,0.01554732,0.09241168,-0.00010792,-
 0.00013431,0.00073697,-0.00133003,0.00035940,-0.00049827,0.00207168,0.
 00008401,-0.00050429,-0.00097679,-0.00068975,-0.00012239,-0.00010031,-
 0.00000451,0.00011306,-0.00040328,0.00018584,-0.00016556,0.00009127,0.
 00003997,0.00000534,-0.00888595,-0.00575941,-0.01137314,0.00019137,-0.
 00010477,0.00000160,-0.00003310,0.00003025,0.00006046,-0.00007130,0.00
 004061,0.00000592,-0.00002505,0.00000827,0.00000627,-0.00002955,0.0000
 0072,-0.00002477,0.00000726,-0.00000684,-0.00000550,0.00000621,0.00000
 006,-0.00000417,-0.02042975,-0.05958172,-0.04951484,-0.00947132,-0.001
 77810,-0.01890265,0.02869754,0.05977198,0.00004807,0.00010559,-0.00024
 499,0.00036123,0.00041625,0.00011944,0.00026736,-0.00029596,0.00105367
 ,0.00015892,0.00032067,-0.00021197,-0.00000625,0.00002110,-0.00007456,
 0.00009546,0.00003341,-0.00003888,-0.00013958,0.00001979,-0.00024322,0
 .00383348,0.00144721,0.01038344,-0.00004985,0.00001258,-0.00019099,-0.
 00004168,0.00001430,0.00002630,0.00004077,-0.00000823,0.00000451,-0.00
 000472,0.00000488,0.00000381,-0.00000877,0.00000031,-0.00000908,0.0000
 0543,0.00000333,0.00000056,0.00000637,-0.00000509,0.00000081,-0.089276
 81,-0.05170458,-0.27543309,-0.00556567,-0.00022127,-0.01114958,0.09436
 567,0.05539789,0.28973299,-0.00157937,-0.00081583,-0.00035347,-0.00269
 437,0.00163705,0.00224506,0.00292103,-0.00077963,0.00008170,-0.0006239
 4,-0.00161570,0.00001079,-0.00039616,0.00011191,-0.00023750,-0.0006559
 9,0.00019051,0.00037209,-0.00015992,0.00019294,0.00019057,-0.00699063,
 -0.03544675,0.01936582,0.00018968,-0.00002232,-0.00041468,-0.00013976,
 0.00003081,0.00006447,0.00003060,-0.00001219,-0.00000937,-0.00002663,0
 .00001843,0.00001411,-0.00003508,0.00001778,-0.00004122,0.00002181,0.0
 0001055,0.00002083,0.00000103,0.00000899,-0.00000704,-0.04979523,0.027
 47755,-0.01868639,0.00163744,0.01092951,-0.01342486,0.00007163,0.01023
 465,-0.00441049,0.05820135,-0.00009593,-0.00054186,-0.00033307,-0.0014
 1779,0.00114912,0.00124418,0.00140363,0.00034606,-0.00050342,-0.000482
 08,0.00013430,-0.00026403,-0.00018887,0.00007767,0.00004999,0.00011529
 ,0.00019828,0.00012000,-0.00016417,0.00019793,0.00056210,-0.00258779,-
 0.01314823,0.00451423,0.00011345,-0.00005566,-0.00002866,-0.00004610,0
 .00000237,0.00005380,-0.00001944,-0.00000495,-0.00000693,-0.00002169,0
 .00001406,0.00000897,-0.00001649,0.00000550,-0.00002404,0.00000931,0.0
 0000064,0.00000817,-0.00000511,0.00001395,-0.00000989,0.01634966,-0.22
 881746,0.12619999,-0.00065602,-0.01251946,0.01389281,0.00070775,0.0078
 8527,-0.00491990,-0.01332459,0.24598343,0.00021578,-0.00057102,-0.0000
 6233,-0.00068581,-0.00123031,-0.00012586,-0.00085835,0.00036252,0.0008
 7667,0.00083001,0.00062684,-0.00011510,-0.00003735,-0.00002739,-0.0000
 0341,0.00005510,0.00000070,-0.00002095,0.00038694,-0.00004148,-0.00019
 452,0.00162046,0.00041512,-0.00046560,-0.00007321,0.00008461,0.0001101
 8,0.00004427,-0.00004318,-0.00002226,0.00000944,-0.00001495,-0.0000037
 9,0.00002210,-0.00001526,-0.00001557,0.00001797,-0.00000153,0.00001173
 ,-0.00000901,-0.00000647,-0.00000520,-0.00000318,0.00001135,0.00001019
 ,-0.01222685,0.12651267,-0.13528917,-0.00168020,-0.01024627,0.01058163
 ,-0.00214851,0.02421665,-0.01411712,0.01437786,-0.13959707,0.13922504,
 0.00033622,0.00246569,0.00021031,-0.01477622,0.00346338,0.00802492,-0.
 00117882,0.00207481,0.00021436,-0.00237806,0.00181984,0.00015101,-0.00
 004304,0.00003898,0.00015114,0.00189654,-0.00319316,-0.00154875,-0.000
 31461,0.00004774,-0.00002602,-0.00004342,-0.00131235,-0.00020000,0.001
 21615,0.00036969,-0.00025146,-0.00023715,-0.00000054,0.00014388,-0.000
 08324,-0.00008900,-0.00001430,-0.00026357,0.00012107,0.00000632,-0.000
 14972,0.00002384,-0.00005280,0.00011068,0.00002714,0.00001199,0.000069
 73,-0.00002712,0.00001101,-0.00048430,0.00153409,0.00098403,-0.0031244
 6,0.00177738,0.00048005,-0.00011890,0.00056436,0.00032107,0.00002250,0
 .00032697,0.00014254,0.01954370,0.00039166,-0.00033133,-0.00018315,0.0
 0338348,0.00164639,-0.00130367,-0.00131665,0.00145947,0.00045856,0.002
 15995,0.00009963,-0.00010124,0.00022311,-0.00014103,-0.00012842,0.0029
 5196,-0.00444271,-0.00145785,-0.00021936,0.00011616,-0.00000790,-0.000
 73318,-0.00087943,-0.00038248,-0.00070098,0.00018969,0.00022857,0.0001
 5691,-0.00009903,-0.00011508,0.00013324,-0.00000020,-0.00003228,0.0000
 5408,-0.00003276,0.00001078,0.00009201,-0.00001087,0.00005660,-0.00003
 552,0.00001309,0.00000211,-0.00003715,0.00002053,-0.00001408,0.0025758
 3,-0.01044817,-0.00331825,-0.00085070,0.00107963,0.00103510,0.00064781
 ,-0.00034701,-0.00064229,0.00115633,-0.00092098,-0.00043555,-0.0100328
 2,0.01302894,-0.00011043,-0.00143981,0.00010542,0.00845054,-0.00168117
 ,-0.00006963,0.00003415,-0.00052695,-0.00030931,0.00150099,-0.00050717
 ,-0.00048221,0.00008092,-0.00001222,-0.00005358,-0.00268956,0.00148485
 ,-0.00284764,0.00006909,-0.00000503,-0.00012139,0.00025165,0.00037185,
 0.00018875,-0.00061084,-0.00011651,-0.00007583,0.00009073,-0.00000443,
 -0.00009558,0.00005964,0.00000347,0.00001271,0.00014991,-0.00004207,-0
 .00000049,0.00006053,-0.00000859,0.00005247,-0.00001623,0.00001731,-0.
 00002270,-0.00001972,-0.00003385,0.00000186,0.00102447,-0.00310048,0.0
 0120407,0.00001183,-0.00033391,-0.00294977,-0.00042010,0.00057142,0.00
 038797,0.00084172,-0.00096723,-0.00037456,-0.00875929,0.00633053,0.005
 44944\\-0.00000376,0.00000066,-0.00000101,-0.00000169,0.00000011,0.000
 00015,0.00000026,0.00000294,0.00000711,0.00000087,0.00000076,-0.000002
 88,0.00000050,-0.00000028,-0.00000057,0.00000162,0.00000470,0.00000267
 ,0.00000005,0.,-0.00000178,-0.00000061,-0.00000633,-0.00000352,0.00000
 017,-0.00000099,0.00000229,-0.00000056,-0.00000050,-0.00000174,0.00000
 002,0.00000087,0.00000042,0.00000031,0.00000069,-0.00000175,0.00000021
 ,0.00000026,-0.00000021,-0.00000008,0.00000039,-0.00000009,0.00000036,
 0.00000014,-0.00000001,0.00000376,-0.00000364,0.00000894,-0.00000092,0
 .00000174,-0.00000353,-0.00000254,-0.00000030,-0.00000271,0.00000096,-
 0.00000033,-0.00000219,0.00000104,-0.00000087,0.00000041\\\@


 WE THE UNWILLING
 LED BY THE UNQUALIFIED
 HAVE BEEN DOING THE UNBELIEVABLE SO LONG WITH SO LITTLE
 THAT WE NOW ATTEMPT THE IMPOSSIBLE WITH NOTHING.

                                    -- ANONYMOUS
 Job cpu time:       0 days  1 hours 15 minutes 24.2 seconds.
 File lengths (MBytes):  RWF=    151 Int=      0 D2E=      0 Chk=      7 Scr=      1
 Normal termination of Gaussian 09 at Sun Apr 19 20:18:43 2015.
