 Entering Gaussian System, Link 0=g09
 Input=/work/cjs14/CJS1_emim_-_6-311+g-d-p-_gd3bj_opt_.com
 Output=/work/cjs14/CJS1_emim_-_6-311+g-d-p-_gd3bj_opt_.log
 Initial command:
 /apps/gaussian/g09_d01/g09/l1.exe /tmp/pbs.9381048.cx1b/Gau-2219.inp -scrdir=/tmp/pbs.9381048.cx1b/
 Entering Link 1 = /apps/gaussian/g09_d01/g09/l1.exe PID=      2220.
  
 Copyright (c) 1988,1990,1992,1993,1995,1998,2003,2009,2013,
            Gaussian, Inc.  All Rights Reserved.
  
 This is part of the Gaussian(R) 09 program.  It is based on
 the Gaussian(R) 03 system (copyright 2003, Gaussian, Inc.),
 the Gaussian(R) 98 system (copyright 1998, Gaussian, Inc.),
 the Gaussian(R) 94 system (copyright 1995, Gaussian, Inc.),
 the Gaussian 92(TM) system (copyright 1992, Gaussian, Inc.),
 the Gaussian 90(TM) system (copyright 1990, Gaussian, Inc.),
 the Gaussian 88(TM) system (copyright 1988, Gaussian, Inc.),
 the Gaussian 86(TM) system (copyright 1986, Carnegie Mellon
 University), and the Gaussian 82(TM) system (copyright 1983,
 Carnegie Mellon University). Gaussian is a federally registered
 trademark of Gaussian, Inc.
  
 This software contains proprietary and confidential information,
 including trade secrets, belonging to Gaussian, Inc.
  
 This software is provided under written license and may be
 used, copied, transmitted, or stored only in accord with that
 written license.
  
 The following legend is applicable only to US Government
 contracts under FAR:
  
                    RESTRICTED RIGHTS LEGEND
  
 Use, reproduction and disclosure by the US Government is
 subject to restrictions as set forth in subparagraphs (a)
 and (c) of the Commercial Computer Software - Restricted
 Rights clause in FAR 52.227-19.
  
 Gaussian, Inc.
 340 Quinnipiac St., Bldg. 40, Wallingford CT 06492
  
  
 ---------------------------------------------------------------
 Warning -- This program may not be used in any manner that
 competes with the business of Gaussian, Inc. or will provide
 assistance to any competitor of Gaussian, Inc.  The licensee
 of this program is prohibited from giving any competitor of
 Gaussian, Inc. access to this program.  By using this program,
 the user acknowledges that Gaussian, Inc. is engaged in the
 business of creating and licensing software in the field of
 computational chemistry and represents and warrants to the
 licensee that it is not a competitor of Gaussian, Inc. and that
 it will not use this program in any manner prohibited above.
 ---------------------------------------------------------------
  

 Cite this work as:
 Gaussian 09, Revision D.01,
 M. J. Frisch, G. W. Trucks, H. B. Schlegel, G. E. Scuseria, 
 M. A. Robb, J. R. Cheeseman, G. Scalmani, V. Barone, B. Mennucci, 
 G. A. Petersson, H. Nakatsuji, M. Caricato, X. Li, H. P. Hratchian, 
 A. F. Izmaylov, J. Bloino, G. Zheng, J. L. Sonnenberg, M. Hada, 
 M. Ehara, K. Toyota, R. Fukuda, J. Hasegawa, M. Ishida, T. Nakajima, 
 Y. Honda, O. Kitao, H. Nakai, T. Vreven, J. A. Montgomery, Jr., 
 J. E. Peralta, F. Ogliaro, M. Bearpark, J. J. Heyd, E. Brothers, 
 K. N. Kudin, V. N. Staroverov, T. Keith, R. Kobayashi, J. Normand, 
 K. Raghavachari, A. Rendell, J. C. Burant, S. S. Iyengar, J. Tomasi, 
 M. Cossi, N. Rega, J. M. Millam, M. Klene, J. E. Knox, J. B. Cross, 
 V. Bakken, C. Adamo, J. Jaramillo, R. Gomperts, R. E. Stratmann, 
 O. Yazyev, A. J. Austin, R. Cammi, C. Pomelli, J. W. Ochterski, 
 R. L. Martin, K. Morokuma, V. G. Zakrzewski, G. A. Voth, 
 P. Salvador, J. J. Dannenberg, S. Dapprich, A. D. Daniels, 
 O. Farkas, J. B. Foresman, J. V. Ortiz, J. Cioslowski, 
 and D. J. Fox, Gaussian, Inc., Wallingford CT, 2013.
 
 ******************************************
 Gaussian 09:  ES64L-G09RevD.01 24-Apr-2013
                16-Apr-2015 
 ******************************************
 %nprocshared=8
 Will use up to    8 processors via shared memory.
 %mem=15000MB
 %chk=CJS1_emim_-_6-311+g-d-p-_gd3bj_opt_.chk
 ----------------------------------------------------------------------
 # opt b3lyp/6-311+g(d,p) geom=connectivity integral=grid=ultrafine scf
 =conver=9 empiricaldispersion=gd3bj
 ----------------------------------------------------------------------
 1/14=-1,18=20,19=15,26=4,38=1,57=2/1,3;
 2/9=110,12=2,17=6,18=5,40=1/2;
 3/5=4,6=6,7=111,11=2,16=1,25=1,30=1,71=1,74=-5,75=-5,124=41/1,2,3;
 4//1;
 5/5=2,6=9,38=5/2;
 6/7=2,8=2,9=2,10=2,28=1/1;
 7//1,2,3,16;
 1/14=-1,18=20,19=15,26=4/3(2);
 2/9=110/2;
 99//99;
 2/9=110/2;
 3/5=4,6=6,7=111,11=2,16=1,25=1,30=1,71=1,74=-5,75=-5,124=41/1,2,3;
 4/5=5,16=3,69=1/1;
 5/5=2,6=9,38=5/2;
 7//1,2,3,16;
 1/14=-1,18=20,19=15,26=4/3(-5);
 2/9=110/2;
 6/7=2,8=2,9=2,10=2,19=2,28=1/1;
 99/9=1/99;
 ----------------------------------------------------------------------
 1-ethyl-3-methylimidazolium created on; Thu Apr 16 12:12:40 BST 2015, 
 from; CJS1_emim_-_init.com
 ----------------------------------------------------------------------
 Symbolic Z-matrix:
 Charge =  1 Multiplicity = 1
 C                    -2.1566   -0.49848   0.64899 
 C                    -0.87057  -0.65495   0.2788 
 C                    -1.2449    1.5578    0.2197 
 N                    -2.41493   0.9331    0.87451 
 H                    -2.87381  -1.28528   0.75607 
 H                    -0.35056  -1.58499   0.18125 
 H                    -1.17426   2.59103  -0.04928 
 N                    -0.31904   0.67354   0.01251 
 C                    -3.70303   1.38844   0.33195 
 C                    -4.85015   0.64216   1.0382 
 H                    -3.73921   1.18628  -0.71816 
 H                    -3.80742   2.44056   0.49642 
 H                    -5.78774   0.9736    0.64328 
 H                    -4.74575  -0.40995   0.87374 
 H                    -4.81397   0.84433   2.08831 
 C                     1.05186   0.95743  -0.43577 
 H                     1.68273   1.10296   0.41612 
 H                     1.41626   0.13336  -1.01283 
 H                     1.05444   1.84262  -1.03688 
 

 GradGradGradGradGradGradGradGradGradGradGradGradGradGradGradGradGradGrad
 Berny optimization.
 Initialization pass.
                           ----------------------------
                           !    Initial Parameters    !
                           ! (Angstroms and Degrees)  !
 --------------------------                            --------------------------
 ! Name  Definition              Value          Derivative Info.                !
 --------------------------------------------------------------------------------
 ! R1    R(1,2)                  1.3474         estimate D2E/DX2                !
 ! R2    R(1,4)                  1.4721         estimate D2E/DX2                !
 ! R3    R(1,5)                  1.07           estimate D2E/DX2                !
 ! R4    R(2,6)                  1.07           estimate D2E/DX2                !
 ! R5    R(2,8)                  1.4629         estimate D2E/DX2                !
 ! R6    R(3,4)                  1.4792         estimate D2E/DX2                !
 ! R7    R(3,7)                  1.07           estimate D2E/DX2                !
 ! R8    R(3,8)                  1.2969         estimate D2E/DX2                !
 ! R9    R(4,9)                  1.47           estimate D2E/DX2                !
 ! R10   R(8,16)                 1.47           estimate D2E/DX2                !
 ! R11   R(9,10)                 1.54           estimate D2E/DX2                !
 ! R12   R(9,11)                 1.07           estimate D2E/DX2                !
 ! R13   R(9,12)                 1.07           estimate D2E/DX2                !
 ! R14   R(10,13)                1.07           estimate D2E/DX2                !
 ! R15   R(10,14)                1.07           estimate D2E/DX2                !
 ! R16   R(10,15)                1.07           estimate D2E/DX2                !
 ! R17   R(16,17)                1.07           estimate D2E/DX2                !
 ! R18   R(16,18)                1.07           estimate D2E/DX2                !
 ! R19   R(16,19)                1.07           estimate D2E/DX2                !
 ! A1    A(2,1,4)              108.8157         estimate D2E/DX2                !
 ! A2    A(2,1,5)              125.5826         estimate D2E/DX2                !
 ! A3    A(4,1,5)              125.6009         estimate D2E/DX2                !
 ! A4    A(1,2,6)              126.1469         estimate D2E/DX2                !
 ! A5    A(1,2,8)              107.7226         estimate D2E/DX2                !
 ! A6    A(6,2,8)              126.1233         estimate D2E/DX2                !
 ! A7    A(4,3,7)              124.8417         estimate D2E/DX2                !
 ! A8    A(4,3,8)              110.3319         estimate D2E/DX2                !
 ! A9    A(7,3,8)              124.8257         estimate D2E/DX2                !
 ! A10   A(1,4,3)              101.7754         estimate D2E/DX2                !
 ! A11   A(1,4,9)              113.4818         estimate D2E/DX2                !
 ! A12   A(3,4,9)              113.51           estimate D2E/DX2                !
 ! A13   A(2,8,3)              108.72           estimate D2E/DX2                !
 ! A14   A(2,8,16)             125.6262         estimate D2E/DX2                !
 ! A15   A(3,8,16)             125.6477         estimate D2E/DX2                !
 ! A16   A(4,9,10)             109.4712         estimate D2E/DX2                !
 ! A17   A(4,9,11)             109.4712         estimate D2E/DX2                !
 ! A18   A(4,9,12)             109.4712         estimate D2E/DX2                !
 ! A19   A(10,9,11)            109.4712         estimate D2E/DX2                !
 ! A20   A(10,9,12)            109.4712         estimate D2E/DX2                !
 ! A21   A(11,9,12)            109.4712         estimate D2E/DX2                !
 ! A22   A(9,10,13)            109.4712         estimate D2E/DX2                !
 ! A23   A(9,10,14)            109.4712         estimate D2E/DX2                !
 ! A24   A(9,10,15)            109.4712         estimate D2E/DX2                !
 ! A25   A(13,10,14)           109.4712         estimate D2E/DX2                !
 ! A26   A(13,10,15)           109.4712         estimate D2E/DX2                !
 ! A27   A(14,10,15)           109.4712         estimate D2E/DX2                !
 ! A28   A(8,16,17)            109.4712         estimate D2E/DX2                !
 ! A29   A(8,16,18)            109.4712         estimate D2E/DX2                !
 ! A30   A(8,16,19)            109.4712         estimate D2E/DX2                !
 ! A31   A(17,16,18)           109.4712         estimate D2E/DX2                !
 ! A32   A(17,16,19)           109.4712         estimate D2E/DX2                !
 ! A33   A(18,16,19)           109.4712         estimate D2E/DX2                !
 ! D1    D(4,1,2,6)            170.692          estimate D2E/DX2                !
 ! D2    D(4,1,2,8)            -10.2371         estimate D2E/DX2                !
 ! D3    D(5,1,2,6)             -9.6241         estimate D2E/DX2                !
 ! D4    D(5,1,2,8)            169.4468         estimate D2E/DX2                !
 ! D5    D(2,1,4,3)             15.3953         estimate D2E/DX2                !
 ! D6    D(2,1,4,9)            137.7284         estimate D2E/DX2                !
 ! D7    D(5,1,4,3)           -164.2885         estimate D2E/DX2                !
 ! D8    D(5,1,4,9)            -41.9554         estimate D2E/DX2                !
 ! D9    D(1,2,8,3)              0.0064         estimate D2E/DX2                !
 ! D10   D(1,2,8,16)          -179.1323         estimate D2E/DX2                !
 ! D11   D(6,2,8,3)            179.0776         estimate D2E/DX2                !
 ! D12   D(6,2,8,16)            -0.061          estimate D2E/DX2                !
 ! D13   D(7,3,4,1)            164.0111         estimate D2E/DX2                !
 ! D14   D(7,3,4,9)             41.6974         estimate D2E/DX2                !
 ! D15   D(8,3,4,1)            -15.7024         estimate D2E/DX2                !
 ! D16   D(8,3,4,9)           -138.0162         estimate D2E/DX2                !
 ! D17   D(4,3,8,2)             10.2746         estimate D2E/DX2                !
 ! D18   D(4,3,8,16)          -170.5869         estimate D2E/DX2                !
 ! D19   D(7,3,8,2)           -169.439          estimate D2E/DX2                !
 ! D20   D(7,3,8,16)             9.6994         estimate D2E/DX2                !
 ! D21   D(1,4,9,10)            62.2144         estimate D2E/DX2                !
 ! D22   D(1,4,9,11)           -57.7856         estimate D2E/DX2                !
 ! D23   D(1,4,9,12)          -177.7856         estimate D2E/DX2                !
 ! D24   D(3,4,9,10)           177.7856         estimate D2E/DX2                !
 ! D25   D(3,4,9,11)            57.7856         estimate D2E/DX2                !
 ! D26   D(3,4,9,12)           -62.2144         estimate D2E/DX2                !
 ! D27   D(2,8,16,17)          -90.5019         estimate D2E/DX2                !
 ! D28   D(2,8,16,18)           29.4981         estimate D2E/DX2                !
 ! D29   D(2,8,16,19)          149.4981         estimate D2E/DX2                !
 ! D30   D(3,8,16,17)           90.5019         estimate D2E/DX2                !
 ! D31   D(3,8,16,18)         -149.4981         estimate D2E/DX2                !
 ! D32   D(3,8,16,19)          -29.4981         estimate D2E/DX2                !
 ! D33   D(4,9,10,13)          180.0            estimate D2E/DX2                !
 ! D34   D(4,9,10,14)          -60.0            estimate D2E/DX2                !
 ! D35   D(4,9,10,15)           60.0            estimate D2E/DX2                !
 ! D36   D(11,9,10,13)         -60.0            estimate D2E/DX2                !
 ! D37   D(11,9,10,14)          60.0            estimate D2E/DX2                !
 ! D38   D(11,9,10,15)         180.0            estimate D2E/DX2                !
 ! D39   D(12,9,10,13)          60.0            estimate D2E/DX2                !
 ! D40   D(12,9,10,14)         180.0            estimate D2E/DX2                !
 ! D41   D(12,9,10,15)         -60.0            estimate D2E/DX2                !
 --------------------------------------------------------------------------------
 Trust Radius=3.00D-01 FncErr=1.00D-07 GrdErr=1.00D-06
 Number of steps in this run=    103 maximum allowed number of steps=    114.
 GradGradGradGradGradGradGradGradGradGradGradGradGradGradGradGradGradGrad

                          Input orientation:                          
 ---------------------------------------------------------------------
 Center     Atomic      Atomic             Coordinates (Angstroms)
 Number     Number       Type             X           Y           Z
 ---------------------------------------------------------------------
      1          6           0       -2.156602   -0.498479    0.648990
      2          6           0       -0.870570   -0.654948    0.278802
      3          6           0       -1.244901    1.557798    0.219705
      4          7           0       -2.414933    0.933102    0.874514
      5          1           0       -2.873808   -1.285275    0.756070
      6          1           0       -0.350558   -1.584986    0.181248
      7          1           0       -1.174264    2.591026   -0.049275
      8          7           0       -0.319042    0.673543    0.012506
      9          6           0       -3.703029    1.388440    0.331950
     10          6           0       -4.850146    0.642163    1.038204
     11          1           0       -3.739210    1.186275   -0.718155
     12          1           0       -3.807420    2.440558    0.496418
     13          1           0       -5.787740    0.973600    0.643276
     14          1           0       -4.745755   -0.409955    0.873735
     15          1           0       -4.813965    0.844328    2.088309
     16          6           0        1.051855    0.957432   -0.435767
     17          1           0        1.682730    1.102964    0.416124
     18          1           0        1.416261    0.133356   -1.012834
     19          1           0        1.054438    1.842616   -1.036884
 ---------------------------------------------------------------------
                    Distance matrix (angstroms):
                    1          2          3          4          5
     1  C    0.000000
     2  C    1.347367   0.000000
     3  C    2.289926   2.244964   0.000000
     4  N    1.472081   2.293869   1.479188   0.000000
     5  H    1.070000   2.153615   3.320255   2.268435   0.000000
     6  H    2.158952   1.070000   3.267785   3.329119   2.605195
     7  H    3.316264   3.276616   1.070000   2.267457   4.308451
     8  N    2.270545   1.462869   1.296941   2.281050   3.304041
     9  C    2.460166   3.493005   2.466511   1.470000   2.831297
    10  C    2.950886   4.253964   3.808690   2.457987   2.774983
    11  H    2.685541   3.551495   2.690574   2.086720   3.005132
    12  H    3.374377   4.272541   2.724397   2.086720   3.849791
    13  H    3.918189   5.192645   4.599792   3.380966   3.688663
    14  H    2.600396   3.928234   4.068881   2.690081   2.069835
    15  H    3.307015   4.590480   4.091325   2.690081   3.174001
    16  C    3.686539   2.608850   2.462757   3.706218   4.675579
    17  H    4.166451   3.102975   2.969255   4.126720   5.155705
    18  H    3.990767   2.742142   3.260364   4.345081   4.852446
    19  H    4.316674   3.416799   2.635734   4.064135   5.331933
                    6          7          8          9         10
     6  H    0.000000
     7  H    4.262712   0.000000
     8  N    2.265042   2.100468   0.000000
     9  C    4.483641   2.825987   3.473398   0.000000
    10  C    5.093217   4.300324   4.645852   1.540000   0.000000
    11  H    4.468979   2.999946   3.534729   1.070000   2.148263
    12  H    5.315471   2.693313   3.940216   1.070000   2.148263
    13  H    6.026838   4.937596   5.513126   2.148263   1.070000
    14  H    4.601956   4.755354   4.638046   2.148263   1.070000
    15  H    5.427749   4.568112   4.954035   2.148263   1.070000
    16  C    2.968393   2.788120   1.470000   4.835709   6.091437
    17  H    3.378535   3.254741   2.086720   5.393977   6.578585
    18  H    2.738645   3.698569   2.086720   5.439744   6.613131
    19  H    3.899527   2.550020   2.086720   4.971265   6.372691
                   11         12         13         14         15
    11  H    0.000000
    12  H    1.747303   0.000000
    13  H    2.468846   2.468846   0.000000
    14  H    2.468846   3.024610   1.747303   0.000000
    15  H    3.024610   2.468846   1.747303   1.747303   0.000000
    16  C    4.804832   5.165384   6.924208   6.098920   6.386830
    17  H    5.539942   5.651314   7.475042   6.619951   6.713430
    18  H    5.270138   5.906596   7.439512   6.467207   6.995591
    19  H    4.848859   5.132857   7.098840   6.508977   6.723211
                   16         17         18         19
    16  C    0.000000
    17  H    1.070000   0.000000
    18  H    1.070000   1.747303   0.000000
    19  H    1.070000   1.747303   1.747303   0.000000
 Stoichiometry    C6H11N2(1+)
 Framework group  C1[X(C6H11N2)]
 Deg. of freedom    51
 Full point group                 C1      NOp   1
 Largest Abelian subgroup         C1      NOp   1
 Largest concise Abelian subgroup C1      NOp   1
                         Standard orientation:                         
 ---------------------------------------------------------------------
 Center     Atomic      Atomic             Coordinates (Angstroms)
 Number     Number       Type             X           Y           Z
 ---------------------------------------------------------------------
      1          6           0       -0.335183    1.174715   -0.038344
      2          6           0        1.003610    1.283936    0.067028
      3          6           0        0.598218   -0.913276   -0.151564
      4          7           0       -0.669656   -0.204221   -0.430371
      5          1           0       -1.039828    1.960110    0.139226
      6          1           0        1.554360    2.191788    0.198856
      7          1           0        0.700236   -1.975563   -0.073858
      8          7           0        1.567672   -0.063685   -0.008707
      9          6           0       -1.822294   -0.756404    0.295866
     10          6           0       -3.075911    0.081222   -0.017864
     11          1           0       -1.628189   -0.727676    1.347720
     12          1           0       -1.984374   -1.769050   -0.009386
     13          1           0       -3.914905   -0.320707    0.510758
     14          1           0       -2.913831    1.093868    0.287389
     15          1           0       -3.270015    0.052494   -1.069718
     16          6           0        2.995602   -0.400645    0.082802
     17          1           0        3.426000   -0.398765   -0.896817
     18          1           0        3.494459    0.323078    0.692938
     19          1           0        3.105725   -1.371519    0.518895
 ---------------------------------------------------------------------
 Rotational constants (GHZ):      5.9690742      1.2394093      1.0653112
 Standard basis: 6-311+G(d,p) (5D, 7F)
 There are   250 symmetry adapted cartesian basis functions of A   symmetry.
 There are   242 symmetry adapted basis functions of A   symmetry.
   242 basis functions,   376 primitive gaussians,   250 cartesian basis functions
    30 alpha electrons       30 beta electrons
       nuclear repulsion energy       377.4773979737 Hartrees.
 NAtoms=   19 NActive=   19 NUniq=   19 SFac= 1.00D+00 NAtFMM=   60 NAOKFM=F Big=F
 Integral buffers will be    131072 words long.
 Raffenetti 2 integral format.
 Two-electron integral symmetry is turned on.
 Nuclear repulsion after empirical dispersion term =      377.4491630437 Hartrees.
 One-electron integrals computed using PRISM.
 NBasis=   242 RedAO= T EigKep=  1.28D-05  NBF=   242
 NBsUse=   242 1.00D-06 EigRej= -1.00D+00 NBFU=   242
 ExpMin= 4.38D-02 ExpMax= 6.29D+03 ExpMxC= 9.49D+02 IAcc=3 IRadAn=         5 AccDes= 0.00D+00
 Harris functional with IExCor=  402 and IRadAn=       5 diagonalized for initial guess.
 HarFok:  IExCor=  402 AccDes= 0.00D+00 IRadAn=         5 IDoV= 1 UseB2=F ITyADJ=14
 ICtDFT=  3500011 ScaDFX=  1.000000  1.000000  1.000000  1.000000
 FoFCou: FMM=F IPFlag=           0 FMFlag=      100000 FMFlg1=           0
         NFxFlg=           0 DoJE=T BraDBF=F KetDBF=T FulRan=T
         wScrn=  0.000000 ICntrl=     500 IOpCl=  0 I1Cent=   200000004 NGrid=           0
         NMat0=    1 NMatS0=      1 NMatT0=    0 NMatD0=    1 NMtDS0=    0 NMtDT0=    0
 Petite list used in FoFCou.
 Keep R1 ints in memory in canonical form, NReq=440399328.
 Requested convergence on RMS density matrix=1.00D-09 within 128 cycles.
 Requested convergence on MAX density matrix=1.00D-07.
 Requested convergence on             energy=1.00D-07.
 No special actions if energy rises.
 SCF Done:  E(RB3LYP) =  -344.613804891     A.U. after   15 cycles
            NFock= 15  Conv=0.73D-09     -V/T= 2.0047

 **********************************************************************

            Population analysis using the SCF density.

 **********************************************************************

 Orbital symmetries:
       Occupied  (A) (A) (A) (A) (A) (A) (A) (A) (A) (A) (A) (A)
                 (A) (A) (A) (A) (A) (A) (A) (A) (A) (A) (A) (A)
                 (A) (A) (A) (A) (A) (A)
       Virtual   (A) (A) (A) (A) (A) (A) (A) (A) (A) (A) (A) (A)
                 (A) (A) (A) (A) (A) (A) (A) (A) (A) (A) (A) (A)
                 (A) (A) (A) (A) (A) (A) (A) (A) (A) (A) (A) (A)
                 (A) (A) (A) (A) (A) (A) (A) (A) (A) (A) (A) (A)
                 (A) (A) (A) (A) (A) (A) (A) (A) (A) (A) (A) (A)
                 (A) (A) (A) (A) (A) (A) (A) (A) (A) (A) (A) (A)
                 (A) (A) (A) (A) (A) (A) (A) (A) (A) (A) (A) (A)
                 (A) (A) (A) (A) (A) (A) (A) (A) (A) (A) (A) (A)
                 (A) (A) (A) (A) (A) (A) (A) (A) (A) (A) (A) (A)
                 (A) (A) (A) (A) (A) (A) (A) (A) (A) (A) (A) (A)
                 (A) (A) (A) (A) (A) (A) (A) (A) (A) (A) (A) (A)
                 (A) (A) (A) (A) (A) (A) (A) (A) (A) (A) (A) (A)
                 (A) (A) (A) (A) (A) (A) (A) (A) (A) (A) (A) (A)
                 (A) (A) (A) (A) (A) (A) (A) (A) (A) (A) (A) (A)
                 (A) (A) (A) (A) (A) (A) (A) (A) (A) (A) (A) (A)
                 (A) (A) (A) (A) (A) (A) (A) (A) (A) (A) (A) (A)
                 (A) (A) (A) (A) (A) (A) (A) (A) (A) (A) (A) (A)
                 (A) (A) (A) (A) (A) (A) (A) (A)
 The electronic state is 1-A.
 Alpha  occ. eigenvalues --  -14.60020 -14.56537 -10.46183 -10.40228 -10.40055
 Alpha  occ. eigenvalues --  -10.38690 -10.36581 -10.29894  -1.22629  -1.11428
 Alpha  occ. eigenvalues --   -0.97231  -0.94167  -0.89502  -0.82394  -0.79163
 Alpha  occ. eigenvalues --   -0.77230  -0.72661  -0.67431  -0.66502  -0.64091
 Alpha  occ. eigenvalues --   -0.63788  -0.63371  -0.61120  -0.58858  -0.57109
 Alpha  occ. eigenvalues --   -0.53173  -0.52634  -0.51726  -0.47665  -0.44391
 Alpha virt. eigenvalues --   -0.23444  -0.17577  -0.13475  -0.11429  -0.11119
 Alpha virt. eigenvalues --   -0.10543  -0.09315  -0.09127  -0.08834  -0.08033
 Alpha virt. eigenvalues --   -0.06676  -0.06152  -0.05346  -0.04924  -0.04231
 Alpha virt. eigenvalues --   -0.03308  -0.02789  -0.02548  -0.01920  -0.00727
 Alpha virt. eigenvalues --   -0.00441  -0.00106   0.01175   0.01803   0.02509
 Alpha virt. eigenvalues --    0.02707   0.03288   0.03591   0.04509   0.05925
 Alpha virt. eigenvalues --    0.06722   0.07052   0.07480   0.07713   0.08267
 Alpha virt. eigenvalues --    0.08804   0.08888   0.09543   0.10232   0.10973
 Alpha virt. eigenvalues --    0.12208   0.12885   0.13114   0.13652   0.14592
 Alpha virt. eigenvalues --    0.15749   0.16691   0.17300   0.19393   0.19804
 Alpha virt. eigenvalues --    0.21174   0.24266   0.25581   0.28390   0.29796
 Alpha virt. eigenvalues --    0.30180   0.30982   0.33380   0.34709   0.36204
 Alpha virt. eigenvalues --    0.37612   0.39512   0.41014   0.41575   0.42685
 Alpha virt. eigenvalues --    0.44554   0.45782   0.47002   0.47502   0.49084
 Alpha virt. eigenvalues --    0.50034   0.50462   0.51434   0.53471   0.54610
 Alpha virt. eigenvalues --    0.55425   0.56646   0.57756   0.58752   0.59461
 Alpha virt. eigenvalues --    0.62337   0.63399   0.66512   0.67114   0.69781
 Alpha virt. eigenvalues --    0.70981   0.71476   0.74350   0.75590   0.76570
 Alpha virt. eigenvalues --    0.77151   0.80083   0.87502   0.89691   0.91239
 Alpha virt. eigenvalues --    0.94476   0.96059   0.97952   1.04668   1.09355
 Alpha virt. eigenvalues --    1.13422   1.14239   1.14554   1.21747   1.23956
 Alpha virt. eigenvalues --    1.26728   1.28820   1.30176   1.33168   1.34400
 Alpha virt. eigenvalues --    1.36824   1.38584   1.39464   1.40084   1.40879
 Alpha virt. eigenvalues --    1.41443   1.43385   1.44717   1.47603   1.48767
 Alpha virt. eigenvalues --    1.49267   1.49958   1.51796   1.53344   1.55773
 Alpha virt. eigenvalues --    1.58172   1.58903   1.61342   1.64154   1.64870
 Alpha virt. eigenvalues --    1.66240   1.69161   1.71238   1.75861   1.81430
 Alpha virt. eigenvalues --    1.84855   1.86812   1.87032   1.88955   1.93436
 Alpha virt. eigenvalues --    1.93916   1.95231   1.97778   2.02967   2.06854
 Alpha virt. eigenvalues --    2.09950   2.12061   2.16339   2.18822   2.21366
 Alpha virt. eigenvalues --    2.26672   2.29565   2.30017   2.31654   2.32277
 Alpha virt. eigenvalues --    2.34682   2.35655   2.36495   2.37836   2.38761
 Alpha virt. eigenvalues --    2.39166   2.40962   2.43607   2.45602   2.45716
 Alpha virt. eigenvalues --    2.48821   2.50231   2.53004   2.53856   2.55415
 Alpha virt. eigenvalues --    2.57826   2.60123   2.61287   2.64312   2.66112
 Alpha virt. eigenvalues --    2.68436   2.71163   2.74557   2.76264   2.79860
 Alpha virt. eigenvalues --    2.81061   2.88932   2.97877   3.05778   3.20381
 Alpha virt. eigenvalues --    3.30056   3.33745   3.37094   3.43682   3.50773
 Alpha virt. eigenvalues --    3.58045   3.63443   3.67989   3.69501   3.72883
 Alpha virt. eigenvalues --    3.73358   3.77105   3.90430   3.94707   4.11116
 Alpha virt. eigenvalues --    4.43762   4.66261   4.73777   4.90706  23.51040
 Alpha virt. eigenvalues --   23.66562  23.72212  23.78304  23.88206  24.00370
 Alpha virt. eigenvalues --   35.25407  35.36233
          Condensed to atoms (all electrons):
               1          2          3          4          5          6
     1  C    5.973397  -0.286713  -0.062629  -0.025412   0.441687  -0.020022
     2  C   -0.286713   5.993610  -0.135555   0.219013  -0.052728   0.415101
     3  C   -0.062629  -0.135555   5.197790   0.370144   0.000157   0.009689
     4  N   -0.025412   0.219013   0.370144   6.713074  -0.050236   0.017264
     5  H    0.441687  -0.052728   0.000157  -0.050236   0.439030  -0.003410
     6  H   -0.020022   0.415101   0.009689   0.017264  -0.003410   0.446652
     7  H    0.006706   0.006417   0.413252  -0.023203  -0.000061  -0.000052
     8  N    0.106908   0.093045   0.430495  -0.228700   0.019444  -0.050219
     9  C   -0.248614   0.111376  -0.108321   0.209869   0.010231  -0.001153
    10  C    0.073451  -0.051352  -0.030455  -0.084202  -0.007997   0.001293
    11  H    0.016175  -0.026032  -0.007387  -0.048649  -0.000348  -0.000107
    12  H    0.017830   0.001784   0.008179  -0.063644   0.000315   0.000019
    13  H   -0.001141   0.002218   0.003128   0.012737   0.000051  -0.000003
    14  H    0.022598   0.007437  -0.001221  -0.040652   0.004441   0.000041
    15  H   -0.013746  -0.003778   0.002040   0.015904  -0.000142  -0.000004
    16  C    0.035205  -0.108289  -0.093665  -0.031774   0.001303  -0.007400
    17  H   -0.004358  -0.007056  -0.020451  -0.002894   0.000011  -0.000213
    18  H    0.024566  -0.013467   0.000423  -0.002942  -0.000002  -0.000328
    19  H    0.002126  -0.004514   0.022506   0.003367   0.000006   0.000076
               7          8          9         10         11         12
     1  C    0.006706   0.106908  -0.248614   0.073451   0.016175   0.017830
     2  C    0.006417   0.093045   0.111376  -0.051352  -0.026032   0.001784
     3  C    0.413252   0.430495  -0.108321  -0.030455  -0.007387   0.008179
     4  N   -0.023203  -0.228700   0.209869  -0.084202  -0.048649  -0.063644
     5  H   -0.000061   0.019444   0.010231  -0.007997  -0.000348   0.000315
     6  H   -0.000052  -0.050219  -0.001153   0.001293  -0.000107   0.000019
     7  H    0.426679  -0.041878   0.005059   0.000697  -0.000308   0.001775
     8  N   -0.041878   6.538499   0.013778  -0.032162   0.018395  -0.000120
     9  C    0.005059   0.013778   5.427646   0.081780   0.422054   0.425834
    10  C    0.000697  -0.032162   0.081780   5.333201  -0.048613  -0.046398
    11  H   -0.000308   0.018395   0.422054  -0.048613   0.511621  -0.032040
    12  H    0.001775  -0.000120   0.425834  -0.046398  -0.032040   0.504237
    13  H   -0.000013   0.000655  -0.021657   0.394352  -0.003507  -0.003967
    14  H    0.000019   0.000334  -0.005019   0.369702  -0.006334   0.007837
    15  H   -0.000003   0.000490  -0.046649   0.434531   0.005748  -0.006028
    16  C   -0.002615   0.250742  -0.002000  -0.006719   0.000056   0.001454
    17  H   -0.000144  -0.012795  -0.000870  -0.000031   0.000031  -0.000008
    18  H    0.000240  -0.033979   0.000528   0.000069   0.000012   0.000002
    19  H    0.001068  -0.042147  -0.000181  -0.000213   0.000016  -0.000006
              13         14         15         16         17         18
     1  C   -0.001141   0.022598  -0.013746   0.035205  -0.004358   0.024566
     2  C    0.002218   0.007437  -0.003778  -0.108289  -0.007056  -0.013467
     3  C    0.003128  -0.001221   0.002040  -0.093665  -0.020451   0.000423
     4  N    0.012737  -0.040652   0.015904  -0.031774  -0.002894  -0.002942
     5  H    0.000051   0.004441  -0.000142   0.001303   0.000011  -0.000002
     6  H   -0.000003   0.000041  -0.000004  -0.007400  -0.000213  -0.000328
     7  H   -0.000013   0.000019  -0.000003  -0.002615  -0.000144   0.000240
     8  N    0.000655   0.000334   0.000490   0.250742  -0.012795  -0.033979
     9  C   -0.021657  -0.005019  -0.046649  -0.002000  -0.000870   0.000528
    10  C    0.394352   0.369702   0.434531  -0.006719  -0.000031   0.000069
    11  H   -0.003507  -0.006334   0.005748   0.000056   0.000031   0.000012
    12  H   -0.003967   0.007837  -0.006028   0.001454  -0.000008   0.000002
    13  H    0.472888  -0.019048  -0.018393   0.000129   0.000000   0.000000
    14  H   -0.019048   0.557680  -0.024409  -0.000009   0.000000   0.000000
    15  H   -0.018393  -0.024409   0.478619  -0.000042   0.000001   0.000000
    16  C    0.000129  -0.000009  -0.000042   4.944839   0.426962   0.399408
    17  H    0.000000   0.000000   0.000001   0.426962   0.440023  -0.020713
    18  H    0.000000   0.000000   0.000000   0.399408  -0.020713   0.472855
    19  H    0.000000   0.000000   0.000000   0.394592  -0.022260  -0.018850
              19
     1  C    0.002126
     2  C   -0.004514
     3  C    0.022506
     4  N    0.003367
     5  H    0.000006
     6  H    0.000076
     7  H    0.001068
     8  N   -0.042147
     9  C   -0.000181
    10  C   -0.000213
    11  H    0.000016
    12  H   -0.000006
    13  H    0.000000
    14  H    0.000000
    15  H    0.000000
    16  C    0.394592
    17  H   -0.022260
    18  H   -0.018850
    19  H    0.481642
 Mulliken charges:
               1
     1  C   -0.058014
     2  C   -0.160519
     3  C    0.001882
     4  N    0.040935
     5  H    0.198248
     6  H    0.192778
     7  H    0.206366
     8  N   -0.030785
     9  C   -0.273693
    10  C   -0.380934
    11  H    0.199218
    12  H    0.182946
    13  H    0.181570
    14  H    0.126602
    15  H    0.175862
    16  C   -0.202178
    17  H    0.224766
    18  H    0.192178
    19  H    0.182771
 Sum of Mulliken charges =   1.00000
 Mulliken charges with hydrogens summed into heavy atoms:
               1
     1  C    0.140234
     2  C    0.032259
     3  C    0.208248
     4  N    0.040935
     8  N   -0.030785
     9  C    0.108471
    10  C    0.103100
    16  C    0.397537
 Electronic spatial extent (au):  <R**2>=           1124.7082
 Charge=              1.0000 electrons
 Dipole moment (field-independent basis, Debye):
    X=              2.9424    Y=             -0.6671    Z=              0.9467  Tot=              3.1622
 Quadrupole moment (field-independent basis, Debye-Ang):
   XX=            -21.2226   YY=            -35.7834   ZZ=            -48.5808
   XY=             -0.7595   XZ=             -0.5605   YZ=              0.4998
 Traceless Quadrupole moment (field-independent basis, Debye-Ang):
   XX=             13.9730   YY=             -0.5878   ZZ=            -13.3852
   XY=             -0.7595   XZ=             -0.5605   YZ=              0.4998
 Octapole moment (field-independent basis, Debye-Ang**2):
  XXX=             31.7528  YYY=              1.2701  ZZZ=              0.6231  XYY=              6.4253
  XXY=             -5.9990  XXZ=              3.3730  XZZ=              1.7630  YZZ=             -2.3723
  YYZ=              2.6594  XYZ=              0.8505
 Hexadecapole moment (field-independent basis, Debye-Ang**3):
 XXXX=           -897.4378 YYYY=           -208.0059 ZZZZ=            -79.2479 XXXY=             -0.6535
 XXXZ=             -1.7375 YYYX=             -0.5744 YYYZ=              5.2700 ZZZX=             -1.9480
 ZZZY=             -0.7724 XXYY=           -206.2583 XXZZ=           -192.5107 YYZZ=            -60.3949
 XXYZ=              0.4636 YYXZ=              2.9219 ZZXY=             -0.4525
 N-N= 3.774491630437D+02 E-N=-1.543347392674D+03  KE= 3.430099528312D+02
 Calling FoFJK, ICntrl=      2127 FMM=F ISym2X=0 I1Cent= 0 IOpClX= 0 NMat=1 NMatS=1 NMatT=0.
 ***** Axes restored to original set *****
 -------------------------------------------------------------------
 Center     Atomic                   Forces (Hartrees/Bohr)
 Number     Number              X              Y              Z
 -------------------------------------------------------------------
      1        6           0.020435929    0.039573444    0.016181249
      2        6          -0.002973700    0.027376301   -0.002423378
      3        6          -0.051083273   -0.026491044    0.047131414
      4        7           0.062235441   -0.019838338   -0.079809080
      5        1          -0.005826967    0.001481249    0.009034868
      6        1           0.011269196    0.000749313   -0.005347649
      7        1          -0.000838280    0.008278644    0.004758091
      8        7          -0.006889045   -0.040039156    0.002750159
      9        6          -0.028887616   -0.007324638    0.020384346
     10        6           0.018349941    0.013118671   -0.008812718
     11        1           0.000640195   -0.000734927   -0.015003883
     12        1           0.001716703    0.014345373    0.002411820
     13        1          -0.012337028    0.003062684   -0.004791248
     14        1          -0.004625554   -0.013543596   -0.001262209
     15        1          -0.001665161    0.001516406    0.014649912
     16        6          -0.008267134   -0.003445892    0.002598753
     17        1           0.007567606    0.001208229    0.011994422
     18        1           0.002451369   -0.010225103   -0.007077527
     19        1          -0.001272620    0.010932379   -0.007367343
 -------------------------------------------------------------------
 Cartesian Forces:  Max     0.079809080 RMS     0.020845993

 GradGradGradGradGradGradGradGradGradGradGradGradGradGradGradGradGradGrad
 Berny optimization.
 FormGI is forming the generalized inverse of G from B-inverse, IUseBI=4.
 Internal  Forces:  Max     0.063045796 RMS     0.011137124
 Search for a local minimum.
 Step number   1 out of a maximum of  103
 All quantities printed in internal units (Hartrees-Bohrs-Radians)
 Mixed Optimization -- RFO/linear search
 Second derivative matrix not updated -- first step.
 ITU=  0
     Eigenvalues ---    0.00237   0.00766   0.00766   0.01096   0.01322
     Eigenvalues ---    0.01558   0.01864   0.01969   0.02163   0.04039
     Eigenvalues ---    0.04502   0.05496   0.05720   0.05720   0.07537
     Eigenvalues ---    0.07537   0.08860   0.12453   0.14160   0.15997
     Eigenvalues ---    0.16000   0.16000   0.16000   0.16000   0.16000
     Eigenvalues ---    0.16000   0.16000   0.16000   0.20416   0.21985
     Eigenvalues ---    0.22917   0.24995   0.28519   0.32137   0.33809
     Eigenvalues ---    0.35740   0.35740   0.36053   0.37230   0.37230
     Eigenvalues ---    0.37230   0.37230   0.37230   0.37230   0.37230
     Eigenvalues ---    0.37230   0.37230   0.37230   0.37230   0.52046
     Eigenvalues ---    0.64657
 RFO step:  Lambda=-4.32268890D-02 EMin= 2.36824125D-03
 Linear search not attempted -- first point.
 Maximum step size (   0.300) exceeded in Quadratic search.
    -- Step size scaled by   0.954
 Iteration  1 RMS(Cart)=  0.07529705 RMS(Int)=  0.00387569
 Iteration  2 RMS(Cart)=  0.00551700 RMS(Int)=  0.00191814
 Iteration  3 RMS(Cart)=  0.00001615 RMS(Int)=  0.00191809
 Iteration  4 RMS(Cart)=  0.00000004 RMS(Int)=  0.00191809
 Variable       Old X    -DE/DX   Delta X   Delta X   Delta X     New X
                                 (Linear)    (Quad)   (Total)
    R1        2.54616  -0.00636   0.00000  -0.00818  -0.00893   2.53723
    R2        2.78183  -0.03243   0.00000  -0.08567  -0.08421   2.69762
    R3        2.02201   0.00372   0.00000   0.00854   0.00854   2.03055
    R4        2.02201   0.00531   0.00000   0.01220   0.01220   2.03420
    R5        2.76442  -0.04260   0.00000  -0.08950  -0.09135   2.67307
    R6        2.79526  -0.06305   0.00000  -0.16201  -0.16058   2.63468
    R7        2.02201   0.00674   0.00000   0.01548   0.01548   2.03749
    R8        2.45086   0.00981   0.00000   0.01477   0.01442   2.46529
    R9        2.77790   0.02393   0.00000   0.05697   0.05697   2.83487
   R10        2.77790   0.00011   0.00000   0.00025   0.00025   2.77815
   R11        2.91018  -0.00190   0.00000  -0.00553  -0.00553   2.90465
   R12        2.02201   0.01484   0.00000   0.03407   0.03407   2.05608
   R13        2.02201   0.01431   0.00000   0.03285   0.03285   2.05485
   R14        2.02201   0.01353   0.00000   0.03105   0.03105   2.05306
   R15        2.02201   0.01306   0.00000   0.02998   0.02998   2.05199
   R16        2.02201   0.01461   0.00000   0.03353   0.03353   2.05554
   R17        2.02201   0.01418   0.00000   0.03254   0.03254   2.05455
   R18        2.02201   0.01253   0.00000   0.02875   0.02875   2.05076
   R19        2.02201   0.01318   0.00000   0.03026   0.03026   2.05226
    A1        1.89919   0.00772   0.00000   0.01573   0.01622   1.91541
    A2        2.19183   0.00365   0.00000   0.02732   0.02692   2.21875
    A3        2.19215  -0.01138   0.00000  -0.04317  -0.04343   2.14871
    A4        2.20168   0.01580   0.00000   0.06322   0.06378   2.26546
    A5        1.88011  -0.00909   0.00000  -0.02004  -0.02292   1.85719
    A6        2.20127  -0.00665   0.00000  -0.04232  -0.04144   2.15983
    A7        2.17890  -0.00700   0.00000  -0.02497  -0.02554   2.15336
    A8        1.92565   0.00625   0.00000   0.01351   0.01461   1.94027
    A9        2.17862   0.00076   0.00000   0.01141   0.01081   2.18943
   A10        1.77632   0.00182   0.00000   0.03438   0.02631   1.80262
   A11        1.98063   0.01336   0.00000   0.11160   0.10442   2.08505
   A12        1.98112   0.00369   0.00000   0.06565   0.05655   2.03767
   A13        1.89752  -0.00312   0.00000   0.00178  -0.00040   1.89712
   A14        2.19259  -0.00114   0.00000  -0.00951  -0.00863   2.18396
   A15        2.19297   0.00429   0.00000   0.00816   0.00905   2.20201
   A16        1.91063   0.01195   0.00000   0.04633   0.04605   1.95668
   A17        1.91063  -0.00308   0.00000  -0.00206  -0.00318   1.90746
   A18        1.91063  -0.00649   0.00000  -0.03859  -0.03843   1.87221
   A19        1.91063  -0.00028   0.00000   0.01547   0.01494   1.92558
   A20        1.91063  -0.00298   0.00000  -0.01402  -0.01344   1.89720
   A21        1.91063   0.00087   0.00000  -0.00714  -0.00731   1.90332
   A22        1.91063  -0.00075   0.00000  -0.00671  -0.00664   1.90399
   A23        1.91063   0.00719   0.00000   0.03511   0.03487   1.94551
   A24        1.91063   0.00261   0.00000   0.01403   0.01377   1.92441
   A25        1.91063  -0.00415   0.00000  -0.02309  -0.02301   1.88762
   A26        1.91063  -0.00164   0.00000  -0.01044  -0.01040   1.90024
   A27        1.91063  -0.00325   0.00000  -0.00890  -0.00942   1.90122
   A28        1.91063  -0.00082   0.00000  -0.00321  -0.00323   1.90740
   A29        1.91063  -0.00226   0.00000  -0.01123  -0.01127   1.89937
   A30        1.91063  -0.00123   0.00000  -0.00579  -0.00582   1.90481
   A31        1.91063   0.00154   0.00000   0.00721   0.00718   1.91782
   A32        1.91063   0.00151   0.00000   0.00835   0.00834   1.91898
   A33        1.91063   0.00127   0.00000   0.00468   0.00462   1.91526
    D1        2.97914   0.00468   0.00000   0.04881   0.04579   3.02493
    D2       -0.17867   0.00825   0.00000   0.10376   0.10174  -0.07693
    D3       -0.16797   0.00280   0.00000   0.02723   0.02496  -0.14301
    D4        2.95741   0.00637   0.00000   0.08219   0.08091   3.03831
    D5        0.26870  -0.00930   0.00000  -0.13282  -0.13434   0.13436
    D6        2.40381   0.00331   0.00000   0.02697   0.02822   2.43203
    D7       -2.86737  -0.00748   0.00000  -0.11152  -0.11478  -2.98215
    D8       -0.73226   0.00513   0.00000   0.04827   0.04778  -0.68448
    D9        0.00011  -0.00049   0.00000  -0.01612  -0.01620  -0.01609
   D10       -3.12645  -0.00270   0.00000  -0.04621  -0.04531   3.11143
   D11        3.12549   0.00335   0.00000   0.04007   0.03672  -3.12097
   D12       -0.00107   0.00114   0.00000   0.00997   0.00762   0.00655
   D13        2.86253   0.01004   0.00000   0.11564   0.11582   2.97836
   D14        0.72776  -0.00922   0.00000  -0.07576  -0.07475   0.65301
   D15       -0.27406   0.01027   0.00000   0.12742   0.12760  -0.14646
   D16       -2.40884  -0.00899   0.00000  -0.06399  -0.06298  -2.47181
   D17        0.17933  -0.00561   0.00000  -0.07397  -0.07337   0.10596
   D18       -2.97730  -0.00345   0.00000  -0.04405  -0.04408  -3.02138
   D19       -2.95727  -0.00535   0.00000  -0.06206  -0.06117  -3.01844
   D20        0.16929  -0.00320   0.00000  -0.03215  -0.03188   0.13740
   D21        1.08585  -0.00391   0.00000  -0.03861  -0.04143   1.04441
   D22       -1.00855  -0.00900   0.00000  -0.08466  -0.08761  -1.09616
   D23       -3.10294  -0.00421   0.00000  -0.05103  -0.05441   3.12583
   D24        3.10294   0.01020   0.00000   0.12806   0.13133  -3.04891
   D25        1.00855   0.00511   0.00000   0.08200   0.08516   1.09370
   D26       -1.08585   0.00990   0.00000   0.11563   0.11835  -0.96749
   D27       -1.57956   0.00179   0.00000   0.02545   0.02497  -1.55459
   D28        0.51484   0.00179   0.00000   0.02544   0.02495   0.53979
   D29        2.60923   0.00121   0.00000   0.02074   0.02028   2.62952
   D30        1.57956  -0.00072   0.00000  -0.00953  -0.00906   1.57049
   D31       -2.60923  -0.00072   0.00000  -0.00955  -0.00908  -2.61831
   D32       -0.51484  -0.00130   0.00000  -0.01424  -0.01374  -0.52858
   D33        3.14159  -0.00221   0.00000  -0.02763  -0.02788   3.11371
   D34       -1.04720  -0.00336   0.00000  -0.03853  -0.03895  -1.08615
   D35        1.04720  -0.00134   0.00000  -0.01933  -0.01944   1.02776
   D36       -1.04720   0.00116   0.00000   0.00769   0.00799  -1.03921
   D37        1.04720   0.00002   0.00000  -0.00320  -0.00308   1.04412
   D38        3.14159   0.00204   0.00000   0.01600   0.01643  -3.12516
   D39        1.04720   0.00024   0.00000  -0.00016  -0.00017   1.04703
   D40        3.14159  -0.00091   0.00000  -0.01105  -0.01124   3.13036
   D41       -1.04720   0.00111   0.00000   0.00814   0.00827  -1.03893
         Item               Value     Threshold  Converged?
 Maximum Force            0.063046     0.000450     NO 
 RMS     Force            0.011137     0.000300     NO 
 Maximum Displacement     0.304188     0.001800     NO 
 RMS     Displacement     0.075755     0.001200     NO 
 Predicted change in Energy=-2.737112D-02
 GradGradGradGradGradGradGradGradGradGradGradGradGradGradGradGradGradGrad

                          Input orientation:                          
 ---------------------------------------------------------------------
 Center     Atomic      Atomic             Coordinates (Angstroms)
 Number     Number       Type             X           Y           Z
 ---------------------------------------------------------------------
      1          6           0       -2.079429   -0.520712    0.647334
      2          6           0       -0.805936   -0.664581    0.247076
      3          6           0       -1.271681    1.496117    0.227668
      4          7           0       -2.394991    0.866732    0.762340
      5          1           0       -2.791730   -1.302422    0.837462
      6          1           0       -0.210333   -1.556095    0.151102
      7          1           0       -1.226013    2.553412    0.021423
      8          7           0       -0.315215    0.638790   -0.000528
      9          6           0       -3.732199    1.360548    0.294941
     10          6           0       -4.892279    0.686412    1.044838
     11          1           0       -3.824250    1.189817   -0.775660
     12          1           0       -3.766894    2.430072    0.488099
     13          1           0       -5.832471    1.098770    0.689403
     14          1           0       -4.906724   -0.385719    0.873291
     15          1           0       -4.808323    0.871735    2.113386
     16          6           0        1.054871    0.960327   -0.425702
     17          1           0        1.679680    1.101479    0.452782
     18          1           0        1.437960    0.139260   -1.023018
     19          1           0        1.039301    1.869619   -1.019305
 ---------------------------------------------------------------------
                    Distance matrix (angstroms):
                    1          2          3          4          5
     1  C    0.000000
     2  C    1.342643   0.000000
     3  C    2.212730   2.210410   0.000000
     4  N    1.427517   2.266166   1.394211   0.000000
     5  H    1.074519   2.167666   3.242564   2.206417   0.000000
     6  H    2.193579   1.076454   3.232387   3.319101   2.683105
     7  H    3.251203   3.253131   1.078191   2.181824   4.240855
     8  N    2.208307   1.414528   1.304573   2.226969   3.256326
     9  C    2.528827   3.558996   2.465168   1.500147   2.875799
    10  C    3.086630   4.377191   3.798963   2.519677   2.900133
    11  H    2.827582   3.687139   2.759727   2.124290   3.143170
    12  H    3.402943   4.289783   2.676972   2.097942   3.873566
    13  H    4.087764   5.345195   4.601292   3.446075   3.877338
    14  H    2.839521   4.157689   4.143872   2.808870   2.305392
    15  H    3.396333   4.675734   4.056307   2.765778   3.228249
    16  C    3.628873   2.560382   2.475239   3.649897   4.638098
    17  H    4.098811   3.056071   2.986126   4.093149   5.091191
    18  H    3.949388   2.700809   3.278328   4.290482   4.840466
    19  H    4.268237   3.380945   2.652373   3.996798   5.309070
                    6          7          8          9         10
     6  H    0.000000
     7  H    4.235148   0.000000
     8  N    2.202615   2.120333   0.000000
     9  C    4.575045   2.789033   3.504856   0.000000
    10  C    5.267659   4.239644   4.695165   1.537073   0.000000
    11  H    4.632420   3.040653   3.635627   1.088029   2.169866
    12  H    5.352778   2.586325   3.919380   1.087381   2.148675
    13  H    6.240715   4.876643   5.579221   2.152968   1.086432
    14  H    4.893612   4.786628   4.784886   2.182532   1.085865
    15  H    5.557557   4.476304   4.971008   2.168808   1.087744
    16  C    2.875034   2.817849   1.470134   4.857524   6.132382
    17  H    3.275036   3.276771   2.097421   5.420374   6.611615
    18  H    2.640011   3.743760   2.090129   5.473491   6.681866
    19  H    3.829746   2.585021   2.094650   4.975299   6.390955
                   11         12         13         14         15
    11  H    0.000000
    12  H    1.771613   0.000000
    13  H    2.487499   2.465664   0.000000
    14  H    2.524501   3.062069   1.759127   0.000000
    15  H    3.068577   2.480836   1.768658   1.768816   0.000000
    16  C    4.897035   5.122948   6.978403   6.248187   6.389981
    17  H    5.640046   5.606386   7.515877   6.765302   6.701087
    18  H    5.371751   5.884030   7.530752   6.642787   7.027774
    19  H    4.916871   5.068124   7.122861   6.635035   6.708519
                   16         17         18         19
    16  C    0.000000
    17  H    1.087219   0.000000
    18  H    1.085216   1.778280   0.000000
    19  H    1.086010   1.779653   1.775693   0.000000
 Stoichiometry    C6H11N2(1+)
 Framework group  C1[X(C6H11N2)]
 Deg. of freedom    51
 Full point group                 C1      NOp   1
 Largest Abelian subgroup         C1      NOp   1
 Largest concise Abelian subgroup C1      NOp   1
                         Standard orientation:                         
 ---------------------------------------------------------------------
 Center     Atomic      Atomic             Coordinates (Angstroms)
 Number     Number       Type             X           Y           Z
 ---------------------------------------------------------------------
      1          6           0       -0.250014    1.188911   -0.049731
      2          6           0        1.083321    1.257789    0.092266
      3          6           0        0.549160   -0.870895   -0.170954
      4          7           0       -0.635534   -0.155026   -0.337854
      5          1           0       -0.955726    1.992410    0.054918
      6          1           0        1.719637    2.117190    0.215898
      7          1           0        0.595957   -1.948067   -0.168173
      8          7           0        1.564315   -0.069092   -0.002184
      9          6           0       -1.864903   -0.724275    0.306388
     10          6           0       -3.128395    0.074370   -0.051866
     11          1           0       -1.726640   -0.748986    1.385313
     12          1           0       -1.979844   -1.741550   -0.060133
     13          1           0       -3.989714   -0.394786    0.415421
     14          1           0       -3.065867    1.098122    0.304680
     15          1           0       -3.274706    0.084362   -1.129679
     16          6           0        2.979383   -0.462549    0.061587
     17          1           0        3.402847   -0.443572   -0.939595
     18          1           0        3.509068    0.237418    0.699689
     19          1           0        3.052207   -1.463826    0.475784
 ---------------------------------------------------------------------
 Rotational constants (GHZ):      6.1207338      1.2222723      1.0547651
 Standard basis: 6-311+G(d,p) (5D, 7F)
 There are   250 symmetry adapted cartesian basis functions of A   symmetry.
 There are   242 symmetry adapted basis functions of A   symmetry.
   242 basis functions,   376 primitive gaussians,   250 cartesian basis functions
    30 alpha electrons       30 beta electrons
       nuclear repulsion energy       378.3726170872 Hartrees.
 NAtoms=   19 NActive=   19 NUniq=   19 SFac= 1.00D+00 NAtFMM=   60 NAOKFM=F Big=F
 Integral buffers will be    131072 words long.
 Raffenetti 2 integral format.
 Two-electron integral symmetry is turned on.
 Nuclear repulsion after empirical dispersion term =      378.3448667063 Hartrees.
 One-electron integrals computed using PRISM.
 NBasis=   242 RedAO= T EigKep=  1.37D-05  NBF=   242
 NBsUse=   242 1.00D-06 EigRej= -1.00D+00 NBFU=   242
 Initial guess from the checkpoint file:  "CJS1_emim_-_6-311+g-d-p-_gd3bj_opt_.chk"
 B after Tr=     0.000000    0.000000    0.000000
         Rot=    0.999946   -0.006208    0.001015    0.008282 Ang=  -1.19 deg.
 ExpMin= 4.38D-02 ExpMax= 6.29D+03 ExpMxC= 9.49D+02 IAcc=2 IRadAn=         4 AccDes= 0.00D+00
 Harris functional with IExCor=  402 and IRadAn=       4 diagonalized for initial guess.
 HarFok:  IExCor=  402 AccDes= 0.00D+00 IRadAn=         4 IDoV= 1 UseB2=F ITyADJ=14
 ICtDFT=  3500011 ScaDFX=  1.000000  1.000000  1.000000  1.000000
 FoFCou: FMM=F IPFlag=           0 FMFlag=      100000 FMFlg1=           0
         NFxFlg=           0 DoJE=T BraDBF=F KetDBF=T FulRan=T
         wScrn=  0.000000 ICntrl=     500 IOpCl=  0 I1Cent=   200000004 NGrid=           0
         NMat0=    1 NMatS0=      1 NMatT0=    0 NMatD0=    1 NMtDS0=    0 NMtDT0=    0
 Petite list used in FoFCou.
 Keep R1 ints in memory in canonical form, NReq=440399328.
 Requested convergence on RMS density matrix=1.00D-09 within 128 cycles.
 Requested convergence on MAX density matrix=1.00D-07.
 Requested convergence on             energy=1.00D-07.
 No special actions if energy rises.
 SCF Done:  E(RB3LYP) =  -344.643167996     A.U. after   14 cycles
            NFock= 14  Conv=0.54D-09     -V/T= 2.0048
 Calling FoFJK, ICntrl=      2127 FMM=F ISym2X=0 I1Cent= 0 IOpClX= 0 NMat=1 NMatS=1 NMatT=0.
 ***** Axes restored to original set *****
 -------------------------------------------------------------------
 Center     Atomic                   Forces (Hartrees/Bohr)
 Number     Number              X              Y              Z
 -------------------------------------------------------------------
      1        6          -0.012452455    0.010878427    0.012103014
      2        6           0.006267316    0.012592343    0.001623861
      3        6          -0.032608667    0.006252855    0.024466239
      4        7           0.032848804   -0.016071525   -0.054803973
      5        1          -0.002747267    0.001950084    0.004731702
      6        1           0.002594752    0.002029403   -0.002373855
      7        1           0.001284987    0.000829483    0.002228466
      8        7           0.007454054   -0.022145002   -0.002383194
      9        6          -0.016623328   -0.000345753    0.017661605
     10        6           0.011713060    0.003825587   -0.001888300
     11        1           0.003432174   -0.000819427   -0.001940901
     12        1           0.002833209    0.002491876   -0.000647191
     13        1          -0.002041760    0.001034018   -0.000996956
     14        1          -0.001707516   -0.003395206   -0.000774043
     15        1          -0.001119827    0.000110833    0.002446187
     16        6          -0.000782090    0.000713559    0.001553534
     17        1           0.001504080   -0.000060334    0.001282399
     18        1           0.000007587   -0.001178684   -0.001347958
     19        1           0.000142885    0.001307464   -0.000940635
 -------------------------------------------------------------------
 Cartesian Forces:  Max     0.054803973 RMS     0.011911829

 GradGradGradGradGradGradGradGradGradGradGradGradGradGradGradGradGradGrad
 Berny optimization.
 Using GEDIIS/GDIIS optimizer.
 FormGI is forming the generalized inverse of G from B-inverse, IUseBI=4.
 Internal  Forces:  Max     0.026081660 RMS     0.004833264
 Search for a local minimum.
 Step number   2 out of a maximum of  103
 All quantities printed in internal units (Hartrees-Bohrs-Radians)
 Mixed Optimization -- RFO/linear search
 Update second derivatives using D2CorX and points    1    2
 DE= -2.94D-02 DEPred=-2.74D-02 R= 1.07D+00
 TightC=F SS=  1.41D+00  RLast= 5.00D-01 DXNew= 5.0454D-01 1.5000D+00
 Trust test= 1.07D+00 RLast= 5.00D-01 DXMaxT set to 5.05D-01
 ITU=  1  0
 Use linear search instead of GDIIS.
     Eigenvalues ---    0.00237   0.00766   0.00771   0.01076   0.01345
     Eigenvalues ---    0.01543   0.01876   0.02012   0.02177   0.02769
     Eigenvalues ---    0.04326   0.05423   0.05457   0.05689   0.07583
     Eigenvalues ---    0.07639   0.09195   0.12751   0.15349   0.15967
     Eigenvalues ---    0.15991   0.15998   0.16000   0.16000   0.16000
     Eigenvalues ---    0.16000   0.16015   0.16326   0.21574   0.22817
     Eigenvalues ---    0.23214   0.25036   0.25804   0.29131   0.33951
     Eigenvalues ---    0.34362   0.35741   0.36285   0.37216   0.37230
     Eigenvalues ---    0.37230   0.37230   0.37230   0.37230   0.37230
     Eigenvalues ---    0.37230   0.37230   0.37230   0.38924   0.52372
     Eigenvalues ---    0.65029
 RFO step:  Lambda=-1.20017341D-02 EMin= 2.37048862D-03
 Quartic linear search produced a step of  0.58852.
 Iteration  1 RMS(Cart)=  0.08536217 RMS(Int)=  0.00698469
 Iteration  2 RMS(Cart)=  0.01090584 RMS(Int)=  0.00478092
 Iteration  3 RMS(Cart)=  0.00002807 RMS(Int)=  0.00478089
 Iteration  4 RMS(Cart)=  0.00000005 RMS(Int)=  0.00478089
 Variable       Old X    -DE/DX   Delta X   Delta X   Delta X     New X
                                 (Linear)    (Quad)   (Total)
    R1        2.53723   0.00618  -0.00525   0.02329   0.01636   2.55358
    R2        2.69762  -0.01637  -0.04956  -0.04234  -0.08699   2.61063
    R3        2.03055   0.00124   0.00503   0.00093   0.00595   2.03650
    R4        2.03420  -0.00003   0.00718  -0.00595   0.00122   2.03543
    R5        2.67307  -0.01379  -0.05376   0.00323  -0.05641   2.61666
    R6        2.63468  -0.02608  -0.09451  -0.04781  -0.13773   2.49695
    R7        2.03749   0.00044   0.00911  -0.00560   0.00351   2.04099
    R8        2.46529   0.01308   0.00849   0.02613   0.03278   2.49807
    R9        2.83487  -0.00023   0.03353  -0.02833   0.00520   2.84006
   R10        2.77815   0.00083   0.00015   0.00334   0.00349   2.78164
   R11        2.90465  -0.00645  -0.00326  -0.03088  -0.03413   2.87051
   R12        2.05608   0.00175   0.02005  -0.00920   0.01085   2.06693
   R13        2.05485   0.00225   0.01933  -0.00661   0.01272   2.06757
   R14        2.05306   0.00249   0.01827  -0.00479   0.01349   2.06655
   R15        2.05199   0.00350   0.01764  -0.00019   0.01745   2.06944
   R16        2.05554   0.00234   0.01973  -0.00657   0.01316   2.06870
   R17        2.05455   0.00189   0.01915  -0.00789   0.01126   2.06581
   R18        2.05076   0.00164   0.01692  -0.00712   0.00981   2.06057
   R19        2.05226   0.00161   0.01781  -0.00795   0.00985   2.06212
    A1        1.91541  -0.00282   0.00954  -0.05599  -0.04072   1.87469
    A2        2.21875   0.00585   0.01584   0.04850   0.06079   2.27954
    A3        2.14871  -0.00301  -0.02556   0.00903  -0.02014   2.12858
    A4        2.26546   0.00437   0.03754  -0.00477   0.03389   2.29935
    A5        1.85719  -0.00084  -0.01349   0.02147   0.00426   1.86145
    A6        2.15983  -0.00359  -0.02439  -0.01640  -0.03922   2.12061
    A7        2.15336   0.00093  -0.01503   0.03294   0.01481   2.16817
    A8        1.94027  -0.00121   0.00860  -0.03876  -0.02429   1.91597
    A9        2.18943   0.00028   0.00636   0.00631   0.00959   2.19902
   A10        1.80262   0.00905   0.01548   0.07721   0.07907   1.88170
   A11        2.08505  -0.00031   0.06145   0.02802   0.06240   2.14745
   A12        2.03767   0.00040   0.03328   0.06242   0.06768   2.10535
   A13        1.89712  -0.00350  -0.00024  -0.00527  -0.00934   1.88778
   A14        2.18396   0.00194  -0.00508   0.00814   0.00443   2.18838
   A15        2.20201   0.00155   0.00532  -0.00324   0.00345   2.20546
   A16        1.95668  -0.00035   0.02710  -0.03001  -0.00288   1.95380
   A17        1.90746  -0.00236  -0.00187  -0.04333  -0.04583   1.86163
   A18        1.87221  -0.00150  -0.02261   0.00356  -0.01904   1.85316
   A19        1.92558   0.00258   0.00879   0.01827   0.02625   1.95183
   A20        1.89720   0.00197  -0.00791   0.04318   0.03528   1.93248
   A21        1.90332  -0.00044  -0.00430   0.00945   0.00354   1.90686
   A22        1.90399  -0.00118  -0.00391  -0.01014  -0.01393   1.89006
   A23        1.94551   0.00159   0.02052  -0.00457   0.01566   1.96116
   A24        1.92441   0.00180   0.00811   0.01081   0.01861   1.94301
   A25        1.88762  -0.00079  -0.01354   0.00131  -0.01211   1.87552
   A26        1.90024  -0.00060  -0.00612  -0.00133  -0.00734   1.89290
   A27        1.90122  -0.00091  -0.00554   0.00380  -0.00238   1.89883
   A28        1.90740   0.00083  -0.00190   0.01061   0.00869   1.91610
   A29        1.89937  -0.00088  -0.00663  -0.00260  -0.00925   1.89011
   A30        1.90481   0.00023  -0.00343   0.00534   0.00187   1.90668
   A31        1.91782   0.00006   0.00423  -0.00327   0.00096   1.91878
   A32        1.91898  -0.00012   0.00491  -0.00349   0.00139   1.92036
   A33        1.91526  -0.00013   0.00272  -0.00643  -0.00376   1.91150
    D1        3.02493   0.00135   0.02695  -0.01443   0.00880   3.03373
    D2       -0.07693   0.00314   0.05988  -0.02246   0.03414  -0.04279
    D3       -0.14301   0.00212   0.01469   0.05091   0.06467  -0.07834
    D4        3.03831   0.00391   0.04762   0.04288   0.09001   3.12832
    D5        0.13436  -0.00359  -0.07906   0.01942  -0.06176   0.07260
    D6        2.43203   0.00546   0.01661   0.20496   0.22229   2.65432
    D7       -2.98215  -0.00448  -0.06755  -0.04356  -0.11326  -3.09541
    D8       -0.68448   0.00457   0.02812   0.14199   0.17079  -0.51368
    D9       -0.01609  -0.00002  -0.00954   0.02381   0.01433  -0.00177
   D10        3.11143  -0.00129  -0.02666  -0.00314  -0.02859   3.08285
   D11       -3.12097   0.00141   0.02161   0.01613   0.03455  -3.08642
   D12        0.00655   0.00014   0.00448  -0.01082  -0.00836  -0.00181
   D13        2.97836   0.00390   0.06817   0.02520   0.09506   3.07342
   D14        0.65301  -0.00425  -0.04399  -0.13368  -0.17740   0.47561
   D15       -0.14646   0.00361   0.07509  -0.00516   0.07150  -0.07496
   D16       -2.47181  -0.00455  -0.03706  -0.16405  -0.20096  -2.67277
   D17        0.10596  -0.00270  -0.04318  -0.01583  -0.05766   0.04830
   D18       -3.02138  -0.00141  -0.02594   0.01136  -0.01422  -3.03560
   D19       -3.01844  -0.00301  -0.03600  -0.04725  -0.08178  -3.10023
   D20        0.13740  -0.00172  -0.01876  -0.02006  -0.03835   0.09906
   D21        1.04441  -0.00649  -0.02439  -0.13929  -0.16789   0.87653
   D22       -1.09616  -0.00787  -0.05156  -0.11166  -0.16748  -1.26363
   D23        3.12583  -0.00523  -0.03202  -0.10154  -0.13855   2.98729
   D24       -3.04891   0.00752   0.07729   0.07372   0.15577  -2.89314
   D25        1.09370   0.00613   0.05012   0.10136   0.15618   1.24989
   D26       -0.96749   0.00877   0.06965   0.11148   0.18511  -0.78238
   D27       -1.55459   0.00123   0.01469   0.02922   0.04348  -1.51111
   D28        0.53979   0.00127   0.01468   0.03000   0.04421   0.58399
   D29        2.62952   0.00073   0.01194   0.02380   0.03530   2.66481
   D30        1.57049  -0.00031  -0.00533  -0.00240  -0.00727   1.56323
   D31       -2.61831  -0.00027  -0.00534  -0.00162  -0.00653  -2.62485
   D32       -0.52858  -0.00081  -0.00809  -0.00781  -0.01545  -0.54403
   D33        3.11371   0.00020  -0.01641   0.03185   0.01537   3.12908
   D34       -1.08615  -0.00056  -0.02292   0.02409   0.00090  -1.08525
   D35        1.02776   0.00058  -0.01144   0.03321   0.02189   1.04965
   D36       -1.03921  -0.00123   0.00470  -0.03145  -0.02692  -1.06613
   D37        1.04412  -0.00199  -0.00181  -0.03920  -0.04139   1.00273
   D38       -3.12516  -0.00085   0.00967  -0.03008  -0.02039   3.13763
   D39        1.04703   0.00100  -0.00010   0.01773   0.01788   1.06491
   D40        3.13036   0.00024  -0.00661   0.00997   0.00341   3.13377
   D41       -1.03893   0.00138   0.00487   0.01909   0.02440  -1.01452
         Item               Value     Threshold  Converged?
 Maximum Force            0.026082     0.000450     NO 
 RMS     Force            0.004833     0.000300     NO 
 Maximum Displacement     0.410469     0.001800     NO 
 RMS     Displacement     0.088550     0.001200     NO 
 Predicted change in Energy=-1.489807D-02
 GradGradGradGradGradGradGradGradGradGradGradGradGradGradGradGradGradGrad

                          Input orientation:                          
 ---------------------------------------------------------------------
 Center     Atomic      Atomic             Coordinates (Angstroms)
 Number     Number       Type             X           Y           Z
 ---------------------------------------------------------------------
      1          6           0       -2.109254   -0.522949    0.553719
      2          6           0       -0.805143   -0.656474    0.225887
      3          6           0       -1.324018    1.471443    0.132964
      4          7           0       -2.401525    0.827236    0.545129
      5          1           0       -2.846370   -1.264487    0.814781
      6          1           0       -0.156177   -1.515775    0.201534
      7          1           0       -1.279333    2.538101   -0.030567
      8          7           0       -0.329048    0.617399   -0.034712
      9          6           0       -3.773941    1.366715    0.255062
     10          6           0       -4.841000    0.684522    1.093746
     11          1           0       -3.946469    1.225775   -0.815780
     12          1           0       -3.733602    2.437492    0.476170
     13          1           0       -5.808853    1.128988    0.845546
     14          1           0       -4.909865   -0.388830    0.887802
     15          1           0       -4.658202    0.827365    2.163591
     16          6           0        1.065383    0.955558   -0.363261
     17          1           0        1.635480    1.109230    0.556746
     18          1           0        1.493043    0.129407   -0.932089
     19          1           0        1.082238    1.862843   -0.969332
 ---------------------------------------------------------------------
                    Distance matrix (angstroms):
                    1          2          3          4          5
     1  C    0.000000
     2  C    1.351298   0.000000
     3  C    2.184314   2.192236   0.000000
     4  N    1.381483   2.202668   1.321327   0.000000
     5  H    1.077670   2.209769   3.204332   2.155436   0.000000
     6  H    2.219064   1.077101   3.208118   3.263333   2.770623
     7  H    3.224932   3.239743   1.080046   2.125512   4.198797
     8  N    2.194488   1.384677   1.321920   2.162269   3.255770
     9  C    2.535983   3.592757   2.455198   1.502897   2.845505
    10  C    3.035137   4.340460   3.729814   2.504473   2.802679
    11  H    2.882519   3.807342   2.799592   2.097082   3.173382
    12  H    3.377682   4.267451   2.618613   2.090959   3.821844
    13  H    4.062154   5.348735   4.553987   3.433830   3.808672
    14  H    2.823654   4.166354   4.109585   2.808560   2.242793
    15  H    3.303358   4.560980   3.956648   2.777050   3.078615
    16  C    3.620104   2.538624   2.494316   3.586236   4.649537
    17  H    4.084978   3.030482   3.011547   4.046859   5.078198
    18  H    3.950915   2.690757   3.297155   4.223363   4.881085
    19  H    4.265830   3.367152   2.675503   3.937344   5.328903
                    6          7          8          9         10
     6  H    0.000000
     7  H    4.212987   0.000000
     8  N    2.153167   2.142931   0.000000
     9  C    4.625995   2.770704   3.537334   0.000000
    10  C    5.252134   4.169570   4.651412   1.519011   0.000000
    11  H    4.787205   3.074471   3.750456   1.093770   2.177023
    12  H    5.338700   2.508056   3.894191   1.094112   2.163478
    13  H    6.273936   4.823871   5.573584   2.132148   1.093569
    14  H    4.933408   4.753009   4.779896   2.184633   1.095099
    15  H    5.441341   4.376951   4.859855   2.171473   1.094708
    16  C    2.814017   2.848301   1.471983   4.895960   6.089474
    17  H    3.197946   3.298900   2.109761   5.423942   6.512568
    18  H    2.590685   3.781615   2.088884   5.539077   6.673250
    19  H    3.784132   2.629499   2.101517   5.032669   6.381965
                   11         12         13         14         15
    11  H    0.000000
    12  H    1.784014   0.000000
    13  H    2.497568   2.480986   0.000000
    14  H    2.537178   3.088872   1.764579   0.000000
    15  H    3.089003   2.508940   1.775449   1.780478   0.000000
    16  C    5.039488   5.092252   6.981863   6.251089   6.257861
    17  H    5.749396   5.531529   7.449959   6.722746   6.501679
    18  H    5.550120   5.884579   7.581348   6.676660   6.921574
    19  H    5.071225   5.060831   7.163760   6.665153   6.621183
                   16         17         18         19
    16  C    0.000000
    17  H    1.093178   0.000000
    18  H    1.090406   1.788008   0.000000
    19  H    1.091225   1.789671   1.781839   0.000000
 Stoichiometry    C6H11N2(1+)
 Framework group  C1[X(C6H11N2)]
 Deg. of freedom    51
 Full point group                 C1      NOp   1
 Largest Abelian subgroup         C1      NOp   1
 Largest concise Abelian subgroup C1      NOp   1
                         Standard orientation:                         
 ---------------------------------------------------------------------
 Center     Atomic      Atomic             Coordinates (Angstroms)
 Number     Number       Type             X           Y           Z
 ---------------------------------------------------------------------
      1          6           0       -0.255774    1.174277    0.017535
      2          6           0        1.092034    1.239863    0.089084
      3          6           0        0.514613   -0.865922   -0.106247
      4          7           0       -0.596127   -0.152475   -0.162419
      5          1           0       -0.998925    1.953848    0.054519
      6          1           0        1.767714    2.077299    0.137093
      7          1           0        0.546990   -1.944407   -0.154407
      8          7           0        1.557548   -0.061660    0.007422
      9          6           0       -1.903202   -0.733017    0.299345
     10          6           0       -3.088033    0.098106   -0.161961
     11          1           0       -1.850545   -0.795970    1.390032
     12          1           0       -1.952708   -1.743028   -0.118395
     13          1           0       -4.003676   -0.382396    0.193859
     14          1           0       -3.069389    1.113587    0.247543
     15          1           0       -3.130517    0.158974   -1.254150
     16          6           0        2.974307   -0.459695   -0.025653
     17          1           0        3.340571   -0.438820   -1.055436
     18          1           0        3.541680    0.243185    0.585112
     19          1           0        3.075184   -1.465007    0.386588
 ---------------------------------------------------------------------
 Rotational constants (GHZ):      6.2933620      1.2349560      1.0641581
 Standard basis: 6-311+G(d,p) (5D, 7F)
 There are   250 symmetry adapted cartesian basis functions of A   symmetry.
 There are   242 symmetry adapted basis functions of A   symmetry.
   242 basis functions,   376 primitive gaussians,   250 cartesian basis functions
    30 alpha electrons       30 beta electrons
       nuclear repulsion energy       381.2379683877 Hartrees.
 NAtoms=   19 NActive=   19 NUniq=   19 SFac= 1.00D+00 NAtFMM=   60 NAOKFM=F Big=F
 Integral buffers will be    131072 words long.
 Raffenetti 2 integral format.
 Two-electron integral symmetry is turned on.
 Nuclear repulsion after empirical dispersion term =      381.2102923576 Hartrees.
 One-electron integrals computed using PRISM.
 NBasis=   242 RedAO= T EigKep=  1.39D-05  NBF=   242
 NBsUse=   242 1.00D-06 EigRej= -1.00D+00 NBFU=   242
 Initial guess from the checkpoint file:  "CJS1_emim_-_6-311+g-d-p-_gd3bj_opt_.chk"
 B after Tr=     0.000000    0.000000    0.000000
         Rot=    0.999989   -0.003885    0.001516    0.001902 Ang=  -0.53 deg.
 ExpMin= 4.38D-02 ExpMax= 6.29D+03 ExpMxC= 9.49D+02 IAcc=2 IRadAn=         4 AccDes= 0.00D+00
 Harris functional with IExCor=  402 and IRadAn=       4 diagonalized for initial guess.
 HarFok:  IExCor=  402 AccDes= 0.00D+00 IRadAn=         4 IDoV= 1 UseB2=F ITyADJ=14
 ICtDFT=  3500011 ScaDFX=  1.000000  1.000000  1.000000  1.000000
 FoFCou: FMM=F IPFlag=           0 FMFlag=      100000 FMFlg1=           0
         NFxFlg=           0 DoJE=T BraDBF=F KetDBF=T FulRan=T
         wScrn=  0.000000 ICntrl=     500 IOpCl=  0 I1Cent=   200000004 NGrid=           0
         NMat0=    1 NMatS0=      1 NMatT0=    0 NMatD0=    1 NMtDS0=    0 NMtDT0=    0
 Petite list used in FoFCou.
 Keep R1 ints in memory in canonical form, NReq=440399328.
 Requested convergence on RMS density matrix=1.00D-09 within 128 cycles.
 Requested convergence on MAX density matrix=1.00D-07.
 Requested convergence on             energy=1.00D-07.
 No special actions if energy rises.
 SCF Done:  E(RB3LYP) =  -344.656178620     A.U. after   13 cycles
            NFock= 13  Conv=0.81D-09     -V/T= 2.0043
 Calling FoFJK, ICntrl=      2127 FMM=F ISym2X=0 I1Cent= 0 IOpClX= 0 NMat=1 NMatS=1 NMatT=0.
 ***** Axes restored to original set *****
 -------------------------------------------------------------------
 Center     Atomic                   Forces (Hartrees/Bohr)
 Number     Number              X              Y              Z
 -------------------------------------------------------------------
      1        6          -0.007114628   -0.008716300    0.009476712
      2        6           0.008440216   -0.002887027    0.002165964
      3        6           0.009582923    0.023909630    0.002553208
      4        7          -0.023053343   -0.006961535   -0.021222677
      5        1           0.001862200    0.000846438   -0.000443535
      6        1          -0.001371152   -0.000448005   -0.001466657
      7        1           0.001666367   -0.001587788   -0.000578231
      8        7           0.012170749   -0.004962864   -0.001765766
      9        6           0.000111533    0.000721080    0.010628192
     10        6          -0.001140662    0.000040570    0.001155538
     11        1           0.000167885    0.000601717    0.001914966
     12        1          -0.000270098   -0.002073245   -0.001468094
     13        1           0.001021037   -0.001164888    0.001150680
     14        1          -0.000531676    0.002712704   -0.000251486
     15        1          -0.000683101   -0.000046430   -0.002070741
     16        6           0.000577518    0.000428538    0.000490115
     17        1          -0.001021682   -0.000480730   -0.001839633
     18        1          -0.000356346    0.001730794    0.000466003
     19        1          -0.000057741   -0.001662658    0.001105442
 -------------------------------------------------------------------
 Cartesian Forces:  Max     0.023909630 RMS     0.006416496

 GradGradGradGradGradGradGradGradGradGradGradGradGradGradGradGradGradGrad
 Berny optimization.
 Using GEDIIS/GDIIS optimizer.
 FormGI is forming the generalized inverse of G from B-inverse, IUseBI=4.
 Internal  Forces:  Max     0.022390343 RMS     0.003438983
 Search for a local minimum.
 Step number   3 out of a maximum of  103
 All quantities printed in internal units (Hartrees-Bohrs-Radians)
 Mixed Optimization -- RFO/linear search
 Update second derivatives using D2CorX and points    2    3
 DE= -1.30D-02 DEPred=-1.49D-02 R= 8.73D-01
 TightC=F SS=  1.41D+00  RLast= 6.64D-01 DXNew= 8.4853D-01 1.9908D+00
 Trust test= 8.73D-01 RLast= 6.64D-01 DXMaxT set to 8.49D-01
 ITU=  1  1  0
 Use linear search instead of GDIIS.
     Eigenvalues ---    0.00237   0.00765   0.00769   0.00927   0.01317
     Eigenvalues ---    0.01536   0.01760   0.01915   0.02039   0.02285
     Eigenvalues ---    0.04346   0.05253   0.05266   0.05719   0.07520
     Eigenvalues ---    0.07689   0.09396   0.12726   0.15583   0.15966
     Eigenvalues ---    0.15999   0.16000   0.16000   0.16000   0.16000
     Eigenvalues ---    0.16063   0.16193   0.20177   0.21863   0.23168
     Eigenvalues ---    0.24098   0.25005   0.28411   0.33456   0.34232
     Eigenvalues ---    0.35529   0.35778   0.36591   0.37217   0.37230
     Eigenvalues ---    0.37230   0.37230   0.37230   0.37230   0.37230
     Eigenvalues ---    0.37230   0.37230   0.37399   0.38960   0.52580
     Eigenvalues ---    0.65046
 RFO step:  Lambda=-8.98892793D-03 EMin= 2.37021867D-03
 Quartic linear search produced a step of  0.15736.
 Iteration  1 RMS(Cart)=  0.09440994 RMS(Int)=  0.00493420
 Iteration  2 RMS(Cart)=  0.00813946 RMS(Int)=  0.00323404
 Iteration  3 RMS(Cart)=  0.00001348 RMS(Int)=  0.00323403
 Iteration  4 RMS(Cart)=  0.00000003 RMS(Int)=  0.00323403
 Variable       Old X    -DE/DX   Delta X   Delta X   Delta X     New X
                                 (Linear)    (Quad)   (Total)
    R1        2.55358   0.00958   0.00257   0.01807   0.01946   2.57304
    R2        2.61063   0.00857  -0.01369   0.02587   0.01499   2.62561
    R3        2.03650  -0.00196   0.00094  -0.00605  -0.00511   2.03139
    R4        2.03543  -0.00044   0.00019  -0.00184  -0.00165   2.03378
    R5        2.61666   0.00439  -0.00888   0.02376   0.01139   2.62805
    R6        2.49695   0.02239  -0.02167   0.07488   0.05607   2.55301
    R7        2.04099  -0.00141   0.00055  -0.00478  -0.00423   2.03676
    R8        2.49807   0.01195   0.00516   0.01857   0.02275   2.52082
    R9        2.84006  -0.00064   0.00082  -0.00474  -0.00392   2.83614
   R10        2.78164  -0.00086   0.00055  -0.00260  -0.00205   2.77960
   R11        2.87051   0.00024  -0.00537   0.00205  -0.00332   2.86719
   R12        2.06693  -0.00198   0.00171  -0.00746  -0.00575   2.06118
   R13        2.06757  -0.00234   0.00200  -0.00844  -0.00644   2.06113
   R14        2.06655  -0.00164   0.00212  -0.00643  -0.00430   2.06224
[...]
     13          1           0       -5.591173    1.383284    1.347611
     14          1           0       -4.629346   -0.058716    1.678500
     15          1           0       -4.020289    1.540640    2.145837
     16          6           0        1.039735    1.014644   -0.002562
     17          1           0        1.538891    0.639189    0.889714
     18          1           0        1.528916    0.629751   -0.896498
     19          1           0        1.076442    2.101831   -0.008111
 ---------------------------------------------------------------------
                    Distance matrix (angstroms):
                    1          2          3          4          5
     1  C    0.000000
     2  C    1.361313   0.000000
     3  C    2.207091   2.208636   0.000000
     4  N    1.382192   2.207301   1.336217   0.000000
     5  H    1.076272   2.218955   3.226126   2.156668   0.000000
     6  H    2.220559   1.076514   3.227706   3.267017   2.768432
     7  H    3.248743   3.250136   1.077027   2.150044   4.224508
     8  N    2.206265   1.382698   1.337803   2.173445   3.265482
     9  C    2.547668   3.643457   2.508673   1.481290   2.833179
    10  C    3.230181   4.351525   3.463370   2.489882   3.277583
    11  H    2.764267   3.985904   3.229099   2.078667   2.746393
    12  H    3.373510   4.256969   2.594213   2.075614   3.828597
    13  H    4.212841   5.389665   4.377889   3.421921   4.148407
    14  H    3.028425   4.212222   3.900083   2.777060   2.778520
    15  H    3.587751   4.460309   3.377766   2.765209   3.851808
    16  C    3.630940   2.536687   2.500780   3.597275   4.658154
    17  H    4.028792   2.842592   3.197230   4.174999   4.984574
    18  H    4.032143   2.857574   3.181052   4.162878   4.989324
    19  H    4.278506   3.396518   2.607158   3.898142   5.348340
                    6          7          8          9         10
     6  H    0.000000
     7  H    4.225794   0.000000
     8  N    2.156740   2.151255   0.000000
     9  C    4.671306   2.848690   3.608251   0.000000
    10  C    5.294949   3.779290   4.444944   1.523491   0.000000
    11  H    4.930382   3.660773   4.181796   1.090690   2.178976
    12  H    5.325412   2.505571   3.881274   1.090151   2.175526
    13  H    6.339836   4.545767   5.453003   2.145180   1.091311
    14  H    5.016067   4.447281   4.624072   2.175897   1.091635
    15  H    5.396619   3.539555   4.340005   2.171686   1.091679
    16  C    2.823267   2.843954   1.469466   4.970826   5.781690
    17  H    2.876241   3.590365   2.099021   5.561838   6.142357
    18  H    2.903578   3.563649   2.100213   5.557617   6.524092
    19  H    3.851239   2.507771   2.092653   5.095084   5.923789
                   11         12         13         14         15
    11  H    0.000000
    12  H    1.760355   0.000000
    13  H    2.507782   2.502786   0.000000
    14  H    2.533454   3.086484   1.764642   0.000000
    15  H    3.086153   2.527165   1.769068   1.774061   0.000000
    16  C    5.582308   5.071465   6.777006   6.009705   5.522330
    17  H    6.237207   5.763957   7.183395   6.257508   5.770177
    18  H    6.006411   5.667367   7.503300   6.710350   6.393684
    19  H    5.798715   4.968721   6.841885   6.329979   5.561572
                   16         17         18         19
    16  C    0.000000
    17  H    1.089165   0.000000
    18  H    1.089294   1.786265   0.000000
    19  H    1.087821   1.777434   1.777916   0.000000
 Stoichiometry    C6H11N2(1+)
 Framework group  C1[X(C6H11N2)]
 Deg. of freedom    51
 Full point group                 C1      NOp   1
 Largest Abelian subgroup         C1      NOp   1
 Largest concise Abelian subgroup C1      NOp   1
                         Standard orientation:                         
 ---------------------------------------------------------------------
 Center     Atomic      Atomic             Coordinates (Angstroms)
 Number     Number       Type             X           Y           Z
 ---------------------------------------------------------------------
      1          6           0       -0.163621    1.302549    0.150552
      2          6           0        1.176511    1.227380   -0.076535
      3          6           0        0.414414   -0.826898    0.201361
      4          7           0       -0.620273    0.009612    0.324442
      5          1           0       -0.819722    2.153834    0.207189
      6          1           0        1.905938    1.999344   -0.252293
      7          1           0        0.367979   -1.899488    0.287275
      8          7           0        1.518682   -0.111856   -0.041589
      9          6           0       -2.029608   -0.384423    0.554080
     10          6           0       -2.875004   -0.231131   -0.704026
     11          1           0       -2.401903    0.234454    1.371388
     12          1           0       -2.012395   -1.417111    0.902919
     13          1           0       -3.899474   -0.537595   -0.486082
     14          1           0       -2.900840    0.805243   -1.045976
     15          1           0       -2.495401   -0.857337   -1.513675
     16          6           0        2.871682   -0.653515   -0.229541
     17          1           0        3.245183   -0.359270   -1.209438
     18          1           0        3.526858   -0.271347    0.552286
     19          1           0        2.828669   -1.738792   -0.168907
 ---------------------------------------------------------------------
 Rotational constants (GHZ):      5.3412629      1.2609070      1.1142922

 **********************************************************************

            Population analysis using the SCF density.

 **********************************************************************

 Orbital symmetries:
       Occupied  (A) (A) (A) (A) (A) (A) (A) (A) (A) (A) (A) (A)
                 (A) (A) (A) (A) (A) (A) (A) (A) (A) (A) (A) (A)
                 (A) (A) (A) (A) (A) (A)
       Virtual   (A) (A) (A) (A) (A) (A) (A) (A) (A) (A) (A) (A)
                 (A) (A) (A) (A) (A) (A) (A) (A) (A) (A) (A) (A)
                 (A) (A) (A) (A) (A) (A) (A) (A) (A) (A) (A) (A)
                 (A) (A) (A) (A) (A) (A) (A) (A) (A) (A) (A) (A)
                 (A) (A) (A) (A) (A) (A) (A) (A) (A) (A) (A) (A)
                 (A) (A) (A) (A) (A) (A) (A) (A) (A) (A) (A) (A)
                 (A) (A) (A) (A) (A) (A) (A) (A) (A) (A) (A) (A)
                 (A) (A) (A) (A) (A) (A) (A) (A) (A) (A) (A) (A)
                 (A) (A) (A) (A) (A) (A) (A) (A) (A) (A) (A) (A)
                 (A) (A) (A) (A) (A) (A) (A) (A) (A) (A) (A) (A)
                 (A) (A) (A) (A) (A) (A) (A) (A) (A) (A) (A) (A)
                 (A) (A) (A) (A) (A) (A) (A) (A) (A) (A) (A) (A)
                 (A) (A) (A) (A) (A) (A) (A) (A) (A) (A) (A) (A)
                 (A) (A) (A) (A) (A) (A) (A) (A) (A) (A) (A) (A)
                 (A) (A) (A) (A) (A) (A) (A) (A) (A) (A) (A) (A)
                 (A) (A) (A) (A) (A) (A) (A) (A) (A) (A) (A) (A)
                 (A) (A) (A) (A) (A) (A) (A) (A) (A) (A) (A) (A)
                 (A) (A) (A) (A) (A) (A) (A) (A)
 The electronic state is 1-A.
 Alpha  occ. eigenvalues --  -14.57801 -14.57381 -10.44148 -10.39272 -10.39201
 Alpha  occ. eigenvalues --  -10.38353 -10.38133 -10.31269  -1.24509  -1.12671
 Alpha  occ. eigenvalues --   -0.97469  -0.94533  -0.89686  -0.82773  -0.80079
 Alpha  occ. eigenvalues --   -0.78156  -0.72298  -0.67177  -0.65278  -0.64711
 Alpha  occ. eigenvalues --   -0.63592  -0.62581  -0.60615  -0.59633  -0.57736
 Alpha  occ. eigenvalues --   -0.55212  -0.53176  -0.51487  -0.47509  -0.43806
 Alpha virt. eigenvalues --   -0.19238  -0.16004  -0.13381  -0.11699  -0.10961
 Alpha virt. eigenvalues --   -0.10088  -0.09487  -0.08665  -0.08528  -0.07572
 Alpha virt. eigenvalues --   -0.06686  -0.06447  -0.05403  -0.04750  -0.04142
 Alpha virt. eigenvalues --   -0.03110  -0.02932  -0.01856  -0.01793  -0.01252
 Alpha virt. eigenvalues --   -0.00503   0.00666   0.01136   0.02330   0.02817
 Alpha virt. eigenvalues --    0.03657   0.03986   0.04204   0.04961   0.05262
 Alpha virt. eigenvalues --    0.05686   0.06322   0.07207   0.08020   0.08093
 Alpha virt. eigenvalues --    0.08563   0.09275   0.09822   0.10185   0.10526
 Alpha virt. eigenvalues --    0.11293   0.12232   0.13617   0.14776   0.15242
 Alpha virt. eigenvalues --    0.15450   0.16471   0.17600   0.21937   0.22836
 Alpha virt. eigenvalues --    0.24244   0.26042   0.27033   0.27745   0.28453
 Alpha virt. eigenvalues --    0.29753   0.32605   0.35736   0.36459   0.37603
 Alpha virt. eigenvalues --    0.39136   0.39993   0.42038   0.42607   0.43386
 Alpha virt. eigenvalues --    0.44020   0.45559   0.46618   0.48373   0.48583
 Alpha virt. eigenvalues --    0.50944   0.51177   0.52212   0.52763   0.54021
 Alpha virt. eigenvalues --    0.54307   0.57425   0.58122   0.59181   0.59930
 Alpha virt. eigenvalues --    0.61811   0.64829   0.65152   0.67968   0.68490
 Alpha virt. eigenvalues --    0.72030   0.76599   0.78177   0.79264   0.81007
 Alpha virt. eigenvalues --    0.81490   0.84909   0.88514   0.89905   0.90081
 Alpha virt. eigenvalues --    0.90961   0.96022   0.99613   1.05656   1.09578
 Alpha virt. eigenvalues --    1.11452   1.13370   1.15868   1.23174   1.24296
 Alpha virt. eigenvalues --    1.27723   1.27874   1.30566   1.32480   1.35646
 Alpha virt. eigenvalues --    1.37149   1.37589   1.38677   1.40364   1.42870
 Alpha virt. eigenvalues --    1.43095   1.43924   1.45612   1.46812   1.47031
 Alpha virt. eigenvalues --    1.47966   1.49963   1.52399   1.54503   1.56141
 Alpha virt. eigenvalues --    1.59217   1.61138   1.61251   1.63198   1.64202
 Alpha virt. eigenvalues --    1.65781   1.69384   1.70156   1.76022   1.80362
 Alpha virt. eigenvalues --    1.84027   1.86057   1.87317   1.93097   1.93987
 Alpha virt. eigenvalues --    1.94657   1.97277   2.00487   2.03631   2.04727
 Alpha virt. eigenvalues --    2.09123   2.12426   2.14636   2.18493   2.22924
 Alpha virt. eigenvalues --    2.25455   2.28181   2.30909   2.32624   2.34173
 Alpha virt. eigenvalues --    2.34867   2.34971   2.37073   2.37743   2.39666
 Alpha virt. eigenvalues --    2.40527   2.42159   2.43695   2.46259   2.46879
 Alpha virt. eigenvalues --    2.47796   2.49032   2.50193   2.55282   2.58168
 Alpha virt. eigenvalues --    2.59128   2.62464   2.63588   2.64146   2.68301
 Alpha virt. eigenvalues --    2.69285   2.74406   2.77934   2.80528   2.81117
 Alpha virt. eigenvalues --    2.82725   2.94461   3.04683   3.12718   3.21890
 Alpha virt. eigenvalues --    3.39384   3.41385   3.47389   3.50743   3.57112
 Alpha virt. eigenvalues --    3.58712   3.62625   3.65196   3.66997   3.69208
 Alpha virt. eigenvalues --    3.73538   3.75150   3.75602   3.94095   4.07212
 Alpha virt. eigenvalues --    4.55250   4.74910   4.78710   5.09020  23.57578
 Alpha virt. eigenvalues --   23.69037  23.72500  23.75046  23.82379  24.00724
 Alpha virt. eigenvalues --   35.27688  35.43542
          Condensed to atoms (all electrons):
               1          2          3          4          5          6
     1  C    5.609103  -0.038356  -0.074904   0.032489   0.473031  -0.071040
     2  C   -0.038356   5.614658  -0.087878   0.239644  -0.071904   0.474615
     3  C   -0.074904  -0.087878   5.043291   0.430733   0.010400   0.010299
     4  N    0.032489   0.239644   0.430733   6.683783  -0.061174   0.026303
     5  H    0.473031  -0.071904   0.010400  -0.061174   0.448670  -0.002192
     6  H   -0.071040   0.474615   0.010299   0.026303  -0.002192   0.448413
     7  H    0.004669   0.009122   0.429405  -0.033061  -0.000051  -0.000038
     8  N    0.237206   0.041841   0.449990  -0.287004   0.027421  -0.065612
     9  C   -0.076245   0.005164  -0.085088   0.153184  -0.018496   0.001059
    10  C   -0.020274   0.026439  -0.005041  -0.077918   0.005891  -0.000131
    11  H   -0.014896   0.005702  -0.006349  -0.025075  -0.001165   0.000016
    12  H    0.018236  -0.012829   0.018564  -0.061497   0.000203   0.000015
    13  H    0.000082   0.001445   0.002629   0.017577  -0.000117  -0.000001
    14  H    0.019632  -0.014710  -0.003339  -0.025956   0.000655   0.000007
    15  H   -0.008386  -0.000209   0.000255   0.006978  -0.000066   0.000004
    16  C    0.036782  -0.128025  -0.089149  -0.014270   0.000955  -0.009344
    17  H    0.011428  -0.015163  -0.008795  -0.004990   0.000013  -0.000539
    18  H    0.003144  -0.010471  -0.014167  -0.004329   0.000007  -0.000517
    19  H   -0.006555   0.011347   0.023955   0.011792   0.000013   0.000098
               7          8          9         10         11         12
     1  C    0.004669   0.237206  -0.076245  -0.020274  -0.014896   0.018236
     2  C    0.009122   0.041841   0.005164   0.026439   0.005702  -0.012829
     3  C    0.429405   0.449990  -0.085088  -0.005041  -0.006349   0.018564
     4  N   -0.033061  -0.287004   0.153184  -0.077918  -0.025075  -0.061497
     5  H   -0.000051   0.027421  -0.018496   0.005891  -0.001165   0.000203
     6  H   -0.000038  -0.065612   0.001059  -0.000131   0.000016   0.000015
     7  H    0.442737  -0.034045  -0.008724   0.002977   0.000162   0.001385
     8  N   -0.034045   6.567955  -0.023051  -0.004497  -0.006411   0.013503
     9  C   -0.008724  -0.023051   5.346756   0.093233   0.466975   0.403186
    10  C    0.002977  -0.004497   0.093233   5.229510  -0.061189  -0.032011
    11  H    0.000162  -0.006411   0.466975  -0.061189   0.474909  -0.030328
    12  H    0.001385   0.013503   0.403186  -0.032011  -0.030328   0.510863
    13  H   -0.000036  -0.000042  -0.070291   0.434093  -0.003589  -0.003131
    14  H    0.000003   0.004037  -0.001118   0.394328  -0.008713   0.006558
    15  H    0.000101  -0.002952  -0.009375   0.395212   0.005809  -0.008247
    16  C   -0.004037   0.237280  -0.008403   0.000978  -0.000988   0.002793
    17  H    0.000071  -0.028388  -0.000226  -0.000055  -0.000001   0.000000
    18  H    0.000046  -0.025516  -0.001091  -0.000047  -0.000003   0.000004
    19  H    0.001109  -0.047029   0.003329   0.000135   0.000000   0.000022
              13         14         15         16         17         18
     1  C    0.000082   0.019632  -0.008386   0.036782   0.011428   0.003144
     2  C    0.001445  -0.014710  -0.000209  -0.128025  -0.015163  -0.010471
     3  C    0.002629  -0.003339   0.000255  -0.089149  -0.008795  -0.014167
     4  N    0.017577  -0.025956   0.006978  -0.014270  -0.004990  -0.004329
     5  H   -0.000117   0.000655  -0.000066   0.000955   0.000013   0.000007
     6  H   -0.000001   0.000007   0.000004  -0.009344  -0.000539  -0.000517
     7  H   -0.000036   0.000003   0.000101  -0.004037   0.000071   0.000046
     8  N   -0.000042   0.004037  -0.002952   0.237280  -0.028388  -0.025516
     9  C   -0.070291  -0.001118  -0.009375  -0.008403  -0.000226  -0.001091
    10  C    0.434093   0.394328   0.395212   0.000978  -0.000055  -0.000047
    11  H   -0.003589  -0.008713   0.005809  -0.000988  -0.000001  -0.000003
    12  H   -0.003131   0.006558  -0.008247   0.002793   0.000000   0.000004
    13  H    0.473332  -0.018885  -0.021071   0.000076   0.000000   0.000000
    14  H   -0.018885   0.517995  -0.028752   0.000237   0.000001   0.000000
    15  H   -0.021071  -0.028752   0.510566  -0.000711   0.000000   0.000000
    16  C    0.000076   0.000237  -0.000711   4.963365   0.415724   0.423899
    17  H    0.000000   0.000001   0.000000   0.415724   0.469751  -0.028739
    18  H    0.000000   0.000000   0.000000   0.423899  -0.028739   0.464193
    19  H    0.000000   0.000000   0.000000   0.375336  -0.018558  -0.018427
              19
     1  C   -0.006555
     2  C    0.011347
     3  C    0.023955
     4  N    0.011792
     5  H    0.000013
     6  H    0.000098
     7  H    0.001109
     8  N   -0.047029
     9  C    0.003329
    10  C    0.000135
    11  H    0.000000
    12  H    0.000022
    13  H    0.000000
    14  H    0.000000
    15  H    0.000000
    16  C    0.375336
    17  H   -0.018558
    18  H   -0.018427
    19  H    0.486045
 Mulliken charges:
               1
     1  C   -0.135146
     2  C   -0.050433
     3  C   -0.044813
     4  N   -0.007208
     5  H    0.187905
     6  H    0.188584
     7  H    0.188205
     8  N   -0.054684
     9  C   -0.170782
    10  C   -0.381634
    11  H    0.205134
    12  H    0.172709
    13  H    0.187929
    14  H    0.158018
    15  H    0.160846
    16  C   -0.202497
    17  H    0.208466
    18  H    0.212014
    19  H    0.177387
 Sum of Mulliken charges =   1.00000
 Mulliken charges with hydrogens summed into heavy atoms:
               1
     1  C    0.052759
     2  C    0.138151
     3  C    0.143393
     4  N   -0.007208
     8  N   -0.054684
     9  C    0.207061
    10  C    0.125159
    16  C    0.395370
 Electronic spatial extent (au):  <R**2>=           1107.4799
 Charge=              1.0000 electrons
 Dipole moment (field-independent basis, Debye):
    X=              1.4892    Y=             -0.6537    Z=              0.3045  Tot=              1.6546
 Quadrupole moment (field-independent basis, Debye-Ang):
   XX=            -21.5715   YY=            -36.4622   ZZ=            -47.3549
   XY=             -0.8505   XZ=             -2.4213   YZ=             -0.5904
 Traceless Quadrupole moment (field-independent basis, Debye-Ang):
   XX=             13.5580   YY=             -1.3327   ZZ=            -12.2253
   XY=             -0.8505   XZ=             -2.4213   YZ=             -0.5904
 Octapole moment (field-independent basis, Debye-Ang**2):
  XXX=             19.3344  YYY=              1.4251  ZZZ=             -0.1653  XYY=              5.5835
  XXY=             -5.8409  XXZ=             -2.7488  XZZ=             -0.6341  YZZ=             -2.1398
  YYZ=              1.1076  XYZ=             -0.5229
 Hexadecapole moment (field-independent basis, Debye-Ang**3):
 XXXX=           -864.5615 YYYY=           -207.4041 ZZZZ=           -113.7452 XXXY=             -2.8364
 XXXZ=            -11.4778 YYYX=             -5.2974 YYYZ=             -4.8505 ZZZX=             -7.1494
 ZZZY=              1.4736 XXYY=           -196.8988 XXZZ=           -187.0757 YYZZ=            -64.3912
 XXYZ=              0.0214 YYXZ=             -4.8219 ZZXY=             -0.4943
 N-N= 3.805086614913D+02 E-N=-1.549563103511D+03  KE= 3.431012758649D+02
 1\1\GINC-CX1-27-18-2\FOpt\RB3LYP\6-311+G(d,p)\C6H11N2(1+)\CJS14\16-Apr
 -2015\0\\# opt b3lyp/6-311+g(d,p) geom=connectivity integral=grid=ultr
 afine scf=conver=9 empiricaldispersion=gd3bj\\1-ethyl-3-methylimidazol
 ium created on; Thu Apr 16 12:12:40 BST 2015, from; CJS1_emim_-_init.c
 om\\1,1\C,-2.1669264574,-0.6882550074,0.0318280267\C,-0.8061331532,-0.
 7248027898,0.0407641528\C,-1.4322980388,1.3923496654,-0.0197155764\N,-
 2.5382336685,0.6425043723,-0.0089823311\H,-2.8910157164,-1.4844092628,
 0.0457785941\H,-0.1235817839,-1.5570101731,0.0616729751\H,-1.404011370
 4,2.4685740701,-0.0501779687\N,-0.3656109903,0.5854561075,0.0088762219
 \C,-3.9291886848,1.1514791823,0.0112461013\C,-4.5735933118,0.990492235
 8,1.3823220911\H,-4.4759223012,0.6085205421,-0.7606887855\H,-3.8833164
 457,2.198038866,-0.2904783991\H,-5.5911733355,1.3832840013,1.347611409
 9\H,-4.629346332,-0.058716101,1.6785002441\H,-4.020288727,1.5406398087
 ,2.145836505\C,1.039734781,1.0146435934,-0.0025623575\H,1.5388912437,0
 .6391892927,0.8897138496\H,1.5289157002,0.62975065,-0.8964983505\H,1.0
 764416321,2.1018309963,-0.0081114927\\Version=ES64L-G09RevD.01\State=1
 -A\HF=-344.664665\RMSD=3.864e-10\RMSF=3.037e-05\Dipole=0.5784324,0.219
 6705,-0.2022682\Quadrupole=10.175312,-0.9851052,-9.1902069,-0.3018488,
 -1.3622056,-0.0679088\PG=C01 [X(C6H11N2)]\\@


 The hours that make us happy make us wise.
                         -- John Masefield
 Job cpu time:       0 days  1 hours 35 minutes 44.2 seconds.
 File lengths (MBytes):  RWF=     28 Int=      0 D2E=      0 Chk=      5 Scr=      1
 Normal termination of Gaussian 09 at Thu Apr 16 12:45:27 2015.
