 Entering Gaussian System, Link 0=g09
 Input=/work/cjs14/CJS1_emim-cl_BM_6-311+g-d-p-_gd3bj_pop-nbo-full-_unfrz.com
 Output=/work/cjs14/CJS1_emim-cl_BM_6-311+g-d-p-_gd3bj_pop-nbo-full-_unfrz.log
 Initial command:
 /apps/gaussian/g09_d01/g09/l1.exe /tmp/pbs.9416797.cx1b/Gau-4667.inp -scrdir=/tmp/pbs.9416797.cx1b/
 Entering Link 1 = /apps/gaussian/g09_d01/g09/l1.exe PID=      4668.
  
 Copyright (c) 1988,1990,1992,1993,1995,1998,2003,2009,2013,
            Gaussian, Inc.  All Rights Reserved.
  
 This is part of the Gaussian(R) 09 program.  It is based on
 the Gaussian(R) 03 system (copyright 2003, Gaussian, Inc.),
 the Gaussian(R) 98 system (copyright 1998, Gaussian, Inc.),
 the Gaussian(R) 94 system (copyright 1995, Gaussian, Inc.),
 the Gaussian 92(TM) system (copyright 1992, Gaussian, Inc.),
 the Gaussian 90(TM) system (copyright 1990, Gaussian, Inc.),
 the Gaussian 88(TM) system (copyright 1988, Gaussian, Inc.),
 the Gaussian 86(TM) system (copyright 1986, Carnegie Mellon
 University), and the Gaussian 82(TM) system (copyright 1983,
 Carnegie Mellon University). Gaussian is a federally registered
 trademark of Gaussian, Inc.
  
 This software contains proprietary and confidential information,
 including trade secrets, belonging to Gaussian, Inc.
  
 This software is provided under written license and may be
 used, copied, transmitted, or stored only in accord with that
 written license.
  
 The following legend is applicable only to US Government
 contracts under FAR:
  
                    RESTRICTED RIGHTS LEGEND
  
 Use, reproduction and disclosure by the US Government is
 subject to restrictions as set forth in subparagraphs (a)
 and (c) of the Commercial Computer Software - Restricted
 Rights clause in FAR 52.227-19.
  
 Gaussian, Inc.
 340 Quinnipiac St., Bldg. 40, Wallingford CT 06492
  
  
 ---------------------------------------------------------------
 Warning -- This program may not be used in any manner that
 competes with the business of Gaussian, Inc. or will provide
 assistance to any competitor of Gaussian, Inc.  The licensee
 of this program is prohibited from giving any competitor of
 Gaussian, Inc. access to this program.  By using this program,
 the user acknowledges that Gaussian, Inc. is engaged in the
 business of creating and licensing software in the field of
 computational chemistry and represents and warrants to the
 licensee that it is not a competitor of Gaussian, Inc. and that
 it will not use this program in any manner prohibited above.
 ---------------------------------------------------------------
  

 Cite this work as:
 Gaussian 09, Revision D.01,
 M. J. Frisch, G. W. Trucks, H. B. Schlegel, G. E. Scuseria, 
 M. A. Robb, J. R. Cheeseman, G. Scalmani, V. Barone, B. Mennucci, 
 G. A. Petersson, H. Nakatsuji, M. Caricato, X. Li, H. P. Hratchian, 
 A. F. Izmaylov, J. Bloino, G. Zheng, J. L. Sonnenberg, M. Hada, 
 M. Ehara, K. Toyota, R. Fukuda, J. Hasegawa, M. Ishida, T. Nakajima, 
 Y. Honda, O. Kitao, H. Nakai, T. Vreven, J. A. Montgomery, Jr., 
 J. E. Peralta, F. Ogliaro, M. Bearpark, J. J. Heyd, E. Brothers, 
 K. N. Kudin, V. N. Staroverov, T. Keith, R. Kobayashi, J. Normand, 
 K. Raghavachari, A. Rendell, J. C. Burant, S. S. Iyengar, J. Tomasi, 
 M. Cossi, N. Rega, J. M. Millam, M. Klene, J. E. Knox, J. B. Cross, 
 V. Bakken, C. Adamo, J. Jaramillo, R. Gomperts, R. E. Stratmann, 
 O. Yazyev, A. J. Austin, R. Cammi, C. Pomelli, J. W. Ochterski, 
 R. L. Martin, K. Morokuma, V. G. Zakrzewski, G. A. Voth, 
 P. Salvador, J. J. Dannenberg, S. Dapprich, A. D. Daniels, 
 O. Farkas, J. B. Foresman, J. V. Ortiz, J. Cioslowski, 
 and D. J. Fox, Gaussian, Inc., Wallingford CT, 2013.
 
 ******************************************
 Gaussian 09:  ES64L-G09RevD.01 24-Apr-2013
                20-Apr-2015 
 ******************************************
 %nprocshared=8
 Will use up to    8 processors via shared memory.
 %mem=15000MB
 %chk=CJS1_emim-cl_BM_6-311+g-d-p-_gd3bj_pop-nbo-full-_unfrz.chk
 ----------------------------------------------------------------------
 # pop(nbo,full) GFInput b3lyp/6-311+g(d,p) geom=checkpoint integral=gr
 id=ultrafine scf=conver=9 empiricaldispersion=gd3bj
 ----------------------------------------------------------------------
 1/29=2,38=1/1;
 2/12=2,40=1/2;
 3/5=4,6=6,7=111,11=2,14=-4,16=1,24=10,25=1,30=1,74=-5,75=-5,124=41/1,2,3;
 4//1;
 5/5=2,6=9,38=5/2;
 6/7=3,28=1,40=1/1,7;
 99/5=1,9=1/99;
 ----------------------------------------------------------------------
 Emim+ (optimised with b3lyp+gd3bj / aug-cc-pvtz) and Cl- in the back-m
 ethyl position created on; Thu Apr 16 19:11:53 BST 2015, from; CJS1_em
 im-cl_BM_init.com created on; Fri Apr 17 20:54:16 BST 2015, from; CJS1
 _emim-cl_BM_6-311+g-d-p-_gd3bj_opt-modredundant_difrz.com created on; 
 Mon Apr 20 15:19:45 BST 2015, from; CJS1_emim-cl_BM_6-311+g-d-p-_gd3bj
 _opt-modredundant_unfrz.com
 ----------------------------------------------------------------------
 Structure from the checkpoint file:  "CJS1_emim-cl_BM_6-311+g-d-p-_gd3bj_pop-nbo-full-_unfrz.chk"
 Charge =  0 Multiplicity = 1
 Redundant internal coordinates found in file.
 C,0,-0.3351627263,1.6713313318,-0.1042526839
 C,0,-1.675800619,1.5543100498,0.116053494
 C,0,-0.8463509881,-0.4741770236,-0.2266098897
 N,0,0.1672020976,0.3971764423,-0.320050745
 H,0,0.2985763306,2.5404306427,-0.1214625796
 H,0,-2.4836965916,2.2544661103,0.3813894237
 H,0,-0.7665475883,-1.5408568871,-0.3462107176
 N,0,-1.9663895834,0.2038108128,0.0348146447
 C,0,1.5797522898,0.0512908356,-0.5270364851
 C,0,2.3892234159,0.1475060881,0.7621955188
 H,0,1.9701182811,0.7245224464,-1.2922454377
 H,0,1.6067880522,-0.959685034,-0.9359654449
 H,0,3.429711795,-0.1175741982,0.5632908436
 H,0,2.3675025134,1.1608058967,1.1673161717
 H,0,1.997798184,-0.5335549915,1.520567835
 C,0,-3.3138436676,-0.3737004054,0.1922240417
 H,0,-3.9350419168,0.3941863992,0.6747513978
 H,0,-3.7199415292,-0.6124254994,-0.7909145841
 H,0,-3.2446280705,-1.2708956828,0.8063100287
 Cl,0,-4.4221855587,2.5985485564,1.253071688
 Recover connectivity data from disk.
                          Input orientation:                          
 ---------------------------------------------------------------------
 Center     Atomic      Atomic             Coordinates (Angstroms)
 Number     Number       Type             X           Y           Z
 ---------------------------------------------------------------------
      1          6           0       -0.335163    1.671331   -0.104253
      2          6           0       -1.675801    1.554310    0.116053
      3          6           0       -0.846351   -0.474177   -0.226610
      4          7           0        0.167202    0.397176   -0.320051
      5          1           0        0.298576    2.540431   -0.121463
      6          1           0       -2.483697    2.254466    0.381389
      7          1           0       -0.766548   -1.540857   -0.346211
      8          7           0       -1.966390    0.203811    0.034815
      9          6           0        1.579752    0.051291   -0.527036
     10          6           0        2.389223    0.147506    0.762196
     11          1           0        1.970118    0.724522   -1.292245
     12          1           0        1.606788   -0.959685   -0.935965
     13          1           0        3.429712   -0.117574    0.563291
     14          1           0        2.367503    1.160806    1.167316
     15          1           0        1.997798   -0.533555    1.520568
     16          6           0       -3.313844   -0.373700    0.192224
     17          1           0       -3.935042    0.394186    0.674751
     18          1           0       -3.719942   -0.612425   -0.790915
     19          1           0       -3.244628   -1.270896    0.806310
     20         17           0       -4.422186    2.598549    1.253072
 ---------------------------------------------------------------------
                    Distance matrix (angstroms):
                    1          2          3          4          5
     1  C    0.000000
     2  C    1.363649   0.000000
     3  C    2.208957   2.218144   0.000000
     4  N    1.386510   2.219415   1.339880   0.000000
     5  H    1.075758   2.219687   3.226418   2.156440   0.000000
     6  H    2.278616   1.101507   3.239762   3.311919   2.841774
     7  H    3.250045   3.258909   1.076327   2.151406   4.223968
     8  N    2.198603   1.383795   1.335102   2.171528   3.257957
     9  C    2.543654   3.642974   2.500470   1.468938   2.828731
    10  C    3.239607   4.349830   3.439937   2.484144   3.298143
    11  H    2.760814   3.995570   3.241135   2.074325   2.731722
    12  H    3.374191   4.266416   2.599383   2.071915   3.824349
    13  H    4.221383   5.390870   4.363006   3.418952   4.163879
    14  H    3.030169   4.196224   3.865883   2.763460   2.800852
    15  H    3.597815   4.452771   3.338464   2.757756   3.877242
    16  C    3.625271   2.531049   2.504803   3.601993   4.651896
    17  H    3.898343   2.600423   3.332644   4.221143   4.812883
    18  H    4.140504   3.113815   2.931736   4.043624   5.151422
    19  H    4.236840   3.304461   2.730095   3.961280   5.285950
    20  Cl   4.405203   3.150536   4.941426   5.327592   4.917145
                    6          7          8          9         10
     6  H    0.000000
     7  H    4.228768   0.000000
     8  N    2.143107   2.151434   0.000000
     9  C    4.710715   2.841259   3.593614   0.000000
    10  C    5.322560   3.746735   4.416290   1.525326   0.000000
    11  H    4.997824   3.676447   4.186684   1.091408   2.174701
    12  H    5.366401   2.513622   3.881203   1.090883   2.172977
    13  H    6.374015   4.523441   5.431435   2.153991   1.091992
    14  H    5.034670   4.405907   4.580504   2.173110   1.091499
    15  H    5.399499   3.484412   4.297203   2.170136   1.091873
    16  C    2.762641   2.853223   1.474425   4.964397   5.755128
    17  H    2.377626   3.850469   2.078787   5.654629   6.329678
    18  H    3.334916   3.127664   2.103097   5.347607   6.349137
    19  H    3.631494   2.746282   2.098537   5.176933   5.809827
    20  Cl   2.153128   5.749441   3.640035   6.758740   7.255609
                   11         12         13         14         15
    11  H    0.000000
    12  H    1.759403   0.000000
    13  H    2.506503   2.505987   0.000000
    14  H    2.529368   3.082039   1.768443   0.000000
    15  H    3.081468   2.523694   1.771947   1.769838   0.000000
    16  C    5.597321   5.082205   6.758612   5.965166   5.477553
    17  H    6.232906   5.927837   7.383354   6.368076   6.064215
    18  H    5.866476   5.340007   7.293579   6.635962   6.167797
    19  H    5.964831   5.164166   6.777612   6.126949   5.341991
    20  Cl   7.131070   7.334946   8.336991   6.940772   7.148274
                   16         17         18         19         20
    16  C    0.000000
    17  H    1.099259   0.000000
    18  H    1.090168   1.791009   0.000000
    19  H    1.089427   1.807340   1.791824   0.000000
    20  Cl   3.344859   2.330445   3.870579   4.069255   0.000000
 Stoichiometry    C6H11ClN2
 Framework group  C1[X(C6H11ClN2)]
 Deg. of freedom    54
 Full point group                 C1      NOp   1
 Largest Abelian subgroup         C1      NOp   1
 Largest concise Abelian subgroup C1      NOp   1
                         Standard orientation:                         
 ---------------------------------------------------------------------
 Center     Atomic      Atomic             Coordinates (Angstroms)
 Number     Number       Type             X           Y           Z
 ---------------------------------------------------------------------
      1          6           0       -0.737283   -0.974476   -0.569400
      2          6           0        0.519482   -0.472775   -0.400943
      3          6           0       -0.936769    1.162525   -0.046978
      4          7           0       -1.634598    0.059213   -0.348665
      5          1           0       -1.067377   -1.967227   -0.819874
      6          1           0        1.534771   -0.899796   -0.413556
      7          1           0       -1.358584    2.127281    0.176175
      8          7           0        0.363990    0.862900   -0.074316
      9          6           0       -3.099114   -0.054419   -0.356271
     10          6           0       -3.625792   -0.770636    0.883190
     11          1           0       -3.379036   -0.582825   -1.269288
     12          1           0       -3.499909    0.957635   -0.427939
     13          1           0       -4.715050   -0.832332    0.836743
     14          1           0       -3.229871   -1.785546    0.950827
     15          1           0       -3.348362   -0.232952    1.792099
     16          6           0        1.475603    1.798246    0.177422
     17          1           0        2.370783    1.187085    0.360468
     18          1           0        1.628209    2.421119   -0.704171
     19          1           0        1.231553    2.412867    1.043178
     20         17           0        3.597081   -0.787699    0.194946
 ---------------------------------------------------------------------
 Rotational constants (GHZ):      3.0628913      0.5479039      0.4913380
 Standard basis: 6-311+G(d,p) (5D, 7F)
 AO basis set in the form of general basis input (Overlap normalization):
      1 0
 S   6 1.00       0.000000000000
      0.4563240000D+04  0.1966650249D-02
      0.6820240000D+03  0.1523060193D-01
      0.1549730000D+03  0.7612690966D-01
      0.4445530000D+02  0.2608010331D+00
      0.1302900000D+02  0.6164620782D+00
      0.1827730000D+01  0.2210060280D+00
 SP   3 1.00       0.000000000000
      0.2096420000D+02  0.1146600807D+00  0.4024869267D-01
      0.4803310000D+01  0.9199996477D+00  0.2375939567D+00
      0.1459330000D+01 -0.3030682134D-02  0.8158538515D+00
 SP   1 1.00       0.000000000000
      0.4834560000D+00  0.1000000000D+01  0.1000000000D+01
 SP   1 1.00       0.000000000000
      0.1455850000D+00  0.1000000000D+01  0.1000000000D+01
 SP   1 1.00       0.000000000000
      0.4380000000D-01  0.1000000000D+01  0.1000000000D+01
 D   1 1.00       0.000000000000
      0.6260000000D+00  0.1000000000D+01
 ****
      2 0
 S   6 1.00       0.000000000000
      0.4563240000D+04  0.1966650249D-02
      0.6820240000D+03  0.1523060193D-01
      0.1549730000D+03  0.7612690966D-01
      0.4445530000D+02  0.2608010331D+00
      0.1302900000D+02  0.6164620782D+00
      0.1827730000D+01  0.2210060280D+00
 SP   3 1.00       0.000000000000
      0.2096420000D+02  0.1146600807D+00  0.4024869267D-01
      0.4803310000D+01  0.9199996477D+00  0.2375939567D+00
      0.1459330000D+01 -0.3030682134D-02  0.8158538515D+00
 SP   1 1.00       0.000000000000
      0.4834560000D+00  0.1000000000D+01  0.1000000000D+01
 SP   1 1.00       0.000000000000
      0.1455850000D+00  0.1000000000D+01  0.1000000000D+01
 SP   1 1.00       0.000000000000
      0.4380000000D-01  0.1000000000D+01  0.1000000000D+01
 D   1 1.00       0.000000000000
      0.6260000000D+00  0.1000000000D+01
 ****
      3 0
 S   6 1.00       0.000000000000
      0.4563240000D+04  0.1966650249D-02
      0.6820240000D+03  0.1523060193D-01
      0.1549730000D+03  0.7612690966D-01
      0.4445530000D+02  0.2608010331D+00
      0.1302900000D+02  0.6164620782D+00
      0.1827730000D+01  0.2210060280D+00
 SP   3 1.00       0.000000000000
      0.2096420000D+02  0.1146600807D+00  0.4024869267D-01
      0.4803310000D+01  0.9199996477D+00  0.2375939567D+00
      0.1459330000D+01 -0.3030682134D-02  0.8158538515D+00
 SP   1 1.00       0.000000000000
      0.4834560000D+00  0.1000000000D+01  0.1000000000D+01
 SP   1 1.00       0.000000000000
      0.1455850000D+00  0.1000000000D+01  0.1000000000D+01
 SP   1 1.00       0.000000000000
      0.4380000000D-01  0.1000000000D+01  0.1000000000D+01
 D   1 1.00       0.000000000000
      0.6260000000D+00  0.1000000000D+01
 ****
      4 0
 S   6 1.00       0.000000000000
      0.6293480000D+04  0.1969788147D-02
      0.9490440000D+03  0.1496128592D-01
      0.2187760000D+03  0.7350053084D-01
      0.6369160000D+02  0.2489367658D+00
      0.1882820000D+02  0.6024594331D+00
      0.2720230000D+01  0.2562017589D+00
 SP   3 1.00       0.000000000000
      0.3063310000D+02  0.1119060795D+00  0.3831191864D-01
      0.7026140000D+01  0.9216666549D+00  0.2374031155D+00
      0.2112050000D+01 -0.2569191826D-02  0.8175923978D+00
 SP   1 1.00       0.000000000000
      0.6840090000D+00  0.1000000000D+01  0.1000000000D+01
 SP   1 1.00       0.000000000000
      0.2008780000D+00  0.1000000000D+01  0.1000000000D+01
 SP   1 1.00       0.000000000000
      0.6390000000D-01  0.1000000000D+01  0.1000000000D+01
 D   1 1.00       0.000000000000
      0.9130000000D+00  0.1000000000D+01
 ****
      5 0
 S   3 1.00       0.000000000000
      0.3386500000D+02  0.2549381454D-01
      0.5094790000D+01  0.1903731086D+00
      0.1158790000D+01  0.8521614860D+00
 S   1 1.00       0.000000000000
      0.3258400000D+00  0.1000000000D+01
 S   1 1.00       0.000000000000
      0.1027410000D+00  0.1000000000D+01
 P   1 1.00       0.000000000000
      0.7500000000D+00  0.1000000000D+01
 ****
      6 0
 S   3 1.00       0.000000000000
      0.3386500000D+02  0.2549381454D-01
      0.5094790000D+01  0.1903731086D+00
      0.1158790000D+01  0.8521614860D+00
 S   1 1.00       0.000000000000
      0.3258400000D+00  0.1000000000D+01
 S   1 1.00       0.000000000000
      0.1027410000D+00  0.1000000000D+01
 P   1 1.00       0.000000000000
      0.7500000000D+00  0.1000000000D+01
 ****
      7 0
 S   3 1.00       0.000000000000
      0.3386500000D+02  0.2549381454D-01
      0.5094790000D+01  0.1903731086D+00
      0.1158790000D+01  0.8521614860D+00
 S   1 1.00       0.000000000000
      0.3258400000D+00  0.1000000000D+01
 S   1 1.00       0.000000000000
      0.1027410000D+00  0.1000000000D+01
 P   1 1.00       0.000000000000
      0.7500000000D+00  0.1000000000D+01
 ****
      8 0
 S   6 1.00       0.000000000000
      0.6293480000D+04  0.1969788147D-02
      0.9490440000D+03  0.1496128592D-01
      0.2187760000D+03  0.7350053084D-01
      0.6369160000D+02  0.2489367658D+00
      0.1882820000D+02  0.6024594331D+00
      0.2720230000D+01  0.2562017589D+00
 SP   3 1.00       0.000000000000
      0.3063310000D+02  0.1119060795D+00  0.3831191864D-01
      0.7026140000D+01  0.9216666549D+00  0.2374031155D+00
      0.2112050000D+01 -0.2569191826D-02  0.8175923978D+00
 SP   1 1.00       0.000000000000
      0.6840090000D+00  0.1000000000D+01  0.1000000000D+01
 SP   1 1.00       0.000000000000
      0.2008780000D+00  0.1000000000D+01  0.1000000000D+01
 SP   1 1.00       0.000000000000
      0.6390000000D-01  0.1000000000D+01  0.1000000000D+01
 D   1 1.00       0.000000000000
      0.9130000000D+00  0.1000000000D+01
 ****
      9 0
 S   6 1.00       0.000000000000
      0.4563240000D+04  0.1966650249D-02
      0.6820240000D+03  0.1523060193D-01
      0.1549730000D+03  0.7612690966D-01
      0.4445530000D+02  0.2608010331D+00
      0.1302900000D+02  0.6164620782D+00
      0.1827730000D+01  0.2210060280D+00
 SP   3 1.00       0.000000000000
      0.2096420000D+02  0.1146600807D+00  0.4024869267D-01
      0.4803310000D+01  0.9199996477D+00  0.2375939567D+00
      0.1459330000D+01 -0.3030682134D-02  0.8158538515D+00
 SP   1 1.00       0.000000000000
      0.4834560000D+00  0.1000000000D+01  0.1000000000D+01
 SP   1 1.00       0.000000000000
      0.1455850000D+00  0.1000000000D+01  0.1000000000D+01
 SP   1 1.00       0.000000000000
      0.4380000000D-01  0.1000000000D+01  0.1000000000D+01
 D   1 1.00       0.000000000000
      0.6260000000D+00  0.1000000000D+01
 ****
     10 0
 S   6 1.00       0.000000000000
      0.4563240000D+04  0.1966650249D-02
      0.6820240000D+03  0.1523060193D-01
      0.1549730000D+03  0.7612690966D-01
      0.4445530000D+02  0.2608010331D+00
      0.1302900000D+02  0.6164620782D+00
      0.1827730000D+01  0.2210060280D+00
 SP   3 1.00       0.000000000000
      0.2096420000D+02  0.1146600807D+00  0.4024869267D-01
      0.4803310000D+01  0.9199996477D+00  0.2375939567D+00
      0.1459330000D+01 -0.3030682134D-02  0.8158538515D+00
 SP   1 1.00       0.000000000000
      0.4834560000D+00  0.1000000000D+01  0.1000000000D+01
 SP   1 1.00       0.000000000000
      0.1455850000D+00  0.1000000000D+01  0.1000000000D+01
 SP   1 1.00       0.000000000000
      0.4380000000D-01  0.1000000000D+01  0.1000000000D+01
 D   1 1.00       0.000000000000
      0.6260000000D+00  0.1000000000D+01
 ****
     11 0
 S   3 1.00       0.000000000000
      0.3386500000D+02  0.2549381454D-01
      0.5094790000D+01  0.1903731086D+00
      0.1158790000D+01  0.8521614860D+00
 S   1 1.00       0.000000000000
      0.3258400000D+00  0.1000000000D+01
 S   1 1.00       0.000000000000
      0.1027410000D+00  0.1000000000D+01
 P   1 1.00       0.000000000000
      0.7500000000D+00  0.1000000000D+01
 ****
     12 0
 S   3 1.00       0.000000000000
      0.3386500000D+02  0.2549381454D-01
      0.5094790000D+01  0.1903731086D+00
      0.1158790000D+01  0.8521614860D+00
 S   1 1.00       0.000000000000
      0.3258400000D+00  0.1000000000D+01
 S   1 1.00       0.000000000000
      0.1027410000D+00  0.1000000000D+01
 P   1 1.00       0.000000000000
      0.7500000000D+00  0.1000000000D+01
 ****
     13 0
 S   3 1.00       0.000000000000
      0.3386500000D+02  0.2549381454D-01
      0.5094790000D+01  0.1903731086D+00
      0.1158790000D+01  0.8521614860D+00
 S   1 1.00       0.000000000000
      0.3258400000D+00  0.1000000000D+01
 S   1 1.00       0.000000000000
      0.1027410000D+00  0.1000000000D+01
 P   1 1.00       0.000000000000
      0.7500000000D+00  0.1000000000D+01
 ****
     14 0
 S   3 1.00       0.000000000000
      0.3386500000D+02  0.2549381454D-01
      0.5094790000D+01  0.1903731086D+00
      0.1158790000D+01  0.8521614860D+00
 S   1 1.00       0.000000000000
      0.3258400000D+00  0.1000000000D+01
 S   1 1.00       0.000000000000
      0.1027410000D+00  0.1000000000D+01
 P   1 1.00       0.000000000000
      0.7500000000D+00  0.1000000000D+01
 ****
     15 0
 S   3 1.00       0.000000000000
      0.3386500000D+02  0.2549381454D-01
      0.5094790000D+01  0.1903731086D+00
      0.1158790000D+01  0.8521614860D+00
 S   1 1.00       0.000000000000
      0.3258400000D+00  0.1000000000D+01
 S   1 1.00       0.000000000000
      0.1027410000D+00  0.1000000000D+01
 P   1 1.00       0.000000000000
      0.7500000000D+00  0.1000000000D+01
 ****
     16 0
 S   6 1.00       0.000000000000
      0.4563240000D+04  0.1966650249D-02
      0.6820240000D+03  0.1523060193D-01
      0.1549730000D+03  0.7612690966D-01
      0.4445530000D+02  0.2608010331D+00
      0.1302900000D+02  0.6164620782D+00
      0.1827730000D+01  0.2210060280D+00
 SP   3 1.00       0.000000000000
      0.2096420000D+02  0.1146600807D+00  0.4024869267D-01
      0.4803310000D+01  0.9199996477D+00  0.2375939567D+00
      0.1459330000D+01 -0.3030682134D-02  0.8158538515D+00
 SP   1 1.00       0.000000000000
      0.4834560000D+00  0.1000000000D+01  0.1000000000D+01
 SP   1 1.00       0.000000000000
      0.1455850000D+00  0.1000000000D+01  0.1000000000D+01
 SP   1 1.00       0.000000000000
      0.4380000000D-01  0.1000000000D+01  0.1000000000D+01
 D   1 1.00       0.000000000000
      0.6260000000D+00  0.1000000000D+01
 ****
     17 0
 S   3 1.00       0.000000000000
      0.3386500000D+02  0.2549381454D-01
      0.5094790000D+01  0.1903731086D+00
      0.1158790000D+01  0.8521614860D+00
 S   1 1.00       0.000000000000
      0.3258400000D+00  0.1000000000D+01
 S   1 1.00       0.000000000000
      0.1027410000D+00  0.1000000000D+01
 P   1 1.00       0.000000000000
      0.7500000000D+00  0.1000000000D+01
 ****
     18 0
 S   3 1.00       0.000000000000
      0.3386500000D+02  0.2549381454D-01
      0.5094790000D+01  0.1903731086D+00
      0.1158790000D+01  0.8521614860D+00
 S   1 1.00       0.000000000000
      0.3258400000D+00  0.1000000000D+01
 S   1 1.00       0.000000000000
      0.1027410000D+00  0.1000000000D+01
 P   1 1.00       0.000000000000
      0.7500000000D+00  0.1000000000D+01
 ****
     19 0
 S   3 1.00       0.000000000000
      0.3386500000D+02  0.2549381454D-01
      0.5094790000D+01  0.1903731086D+00
      0.1158790000D+01  0.8521614860D+00
 S   1 1.00       0.000000000000
      0.3258400000D+00  0.1000000000D+01
 S   1 1.00       0.000000000000
      0.1027410000D+00  0.1000000000D+01
 P   1 1.00       0.000000000000
      0.7500000000D+00  0.1000000000D+01
 ****
     20 0
 S   6 1.00       0.000000000000
      0.1058190000D+06  0.7380002465D-03
      0.1587200000D+05  0.5718001910D-02
      0.3619650000D+04  0.2949500985D-01
      0.1030800000D+04  0.1172860392D+00
      0.3399080000D+03  0.3629491212D+00
      0.1245380000D+03  0.5841491951D+00
 S   3 1.00       0.000000000000
      0.1245380000D+03  0.1341769734D+00
      0.4951350000D+02  0.6242498762D+00
      0.2080560000D+02  0.2917559421D+00
 S   1 1.00       0.000000000000
      0.6583460000D+01  0.1000000000D+01
 S   1 1.00       0.000000000000
      0.2564680000D+01  0.1000000000D+01
 S   1 1.00       0.000000000000
      0.5597630000D+00  0.1000000000D+01
 S   1 1.00       0.000000000000
      0.1832730000D+00  0.1000000000D+01
 SP   1 1.00       0.000000000000
      0.4830000000D-01  0.1000000000D+01  0.1000000000D+01
 P   5 1.00       0.000000000000
      0.5897760000D+03  0.3665569355D-02
      0.1398490000D+03  0.2836791942D-01
      0.4514130000D+02  0.1247566028D+00
      0.1687330000D+02  0.3396546305D+00
      0.2771520000D+01  0.7475859630D+00
 P   2 1.00       0.000000000000
      0.6741100000D+01 -0.1572243813D+01
      0.2771520000D+01  0.9923888817D+00
 P   1 1.00       0.000000000000
      0.1023870000D+01  0.1000000000D+01
 P   1 1.00       0.000000000000
      0.3813680000D+00  0.1000000000D+01
 P   1 1.00       0.000000000000
      0.1094370000D+00  0.1000000000D+01
 D   1 1.00       0.000000000000
      0.7500000000D+00  0.1000000000D+01
 ****

 There are   281 symmetry adapted cartesian basis functions of A   symmetry.
 There are   272 symmetry adapted basis functions of A   symmetry.
   272 basis functions,   429 primitive gaussians,   281 cartesian basis functions
    39 alpha electrons       39 beta electrons
       nuclear repulsion energy       503.6836605459 Hartrees.
 NAtoms=   20 NActive=   20 NUniq=   20 SFac= 1.00D+00 NAtFMM=   60 NAOKFM=F Big=F
 Integral buffers will be    131072 words long.
 Raffenetti 2 integral format.
 Two-electron integral symmetry is turned on.
 Nuclear repulsion after empirical dispersion term =      503.6521590283 Hartrees.
 One-electron integrals computed using PRISM.
 NBasis=   272 RedAO= T EigKep=  8.42D-06  NBF=   272
 NBsUse=   272 1.00D-06 EigRej= -1.00D+00 NBFU=   272
 ExpMin= 4.38D-02 ExpMax= 1.06D+05 ExpMxC= 3.62D+03 IAcc=3 IRadAn=         5 AccDes= 0.00D+00
 Harris functional with IExCor=  402 and IRadAn=       5 diagonalized for initial guess.
 HarFok:  IExCor=  402 AccDes= 0.00D+00 IRadAn=         5 IDoV= 1 UseB2=F ITyADJ=14
 ICtDFT=  3500011 ScaDFX=  1.000000  1.000000  1.000000  1.000000
 FoFCou: FMM=F IPFlag=           0 FMFlag=      100000 FMFlg1=           0
         NFxFlg=           0 DoJE=T BraDBF=F KetDBF=T FulRan=T
         wScrn=  0.000000 ICntrl=     500 IOpCl=  0 I1Cent=   200000004 NGrid=           0
         NMat0=    1 NMatS0=      1 NMatT0=    0 NMatD0=    1 NMtDS0=    0 NMtDT0=    0
 Petite list used in FoFCou.
 Keep R1 ints in memory in canonical form, NReq=700735283.
 Requested convergence on RMS density matrix=1.00D-09 within 128 cycles.
 Requested convergence on MAX density matrix=1.00D-07.
 Requested convergence on             energy=1.00D-07.
 No special actions if energy rises.
 SCF Done:  E(RB3LYP) =  -805.103569739     A.U. after   16 cycles
            NFock= 16  Conv=0.86D-09     -V/T= 2.0033

 **********************************************************************

            Population analysis using the SCF density.

 **********************************************************************

 Orbital symmetries:
       Occupied  (A) (A) (A) (A) (A) (A) (A) (A) (A) (A) (A) (A)
                 (A) (A) (A) (A) (A) (A) (A) (A) (A) (A) (A) (A)
                 (A) (A) (A) (A) (A) (A) (A) (A) (A) (A) (A) (A)
                 (A) (A) (A)
       Virtual   (A) (A) (A) (A) (A) (A) (A) (A) (A) (A) (A) (A)
                 (A) (A) (A) (A) (A) (A) (A) (A) (A) (A) (A) (A)
                 (A) (A) (A) (A) (A) (A) (A) (A) (A) (A) (A) (A)
                 (A) (A) (A) (A) (A) (A) (A) (A) (A) (A) (A) (A)
                 (A) (A) (A) (A) (A) (A) (A) (A) (A) (A) (A) (A)
                 (A) (A) (A) (A) (A) (A) (A) (A) (A) (A) (A) (A)
                 (A) (A) (A) (A) (A) (A) (A) (A) (A) (A) (A) (A)
                 (A) (A) (A) (A) (A) (A) (A) (A) (A) (A) (A) (A)
                 (A) (A) (A) (A) (A) (A) (A) (A) (A) (A) (A) (A)
                 (A) (A) (A) (A) (A) (A) (A) (A) (A) (A) (A) (A)
                 (A) (A) (A) (A) (A) (A) (A) (A) (A) (A) (A) (A)
                 (A) (A) (A) (A) (A) (A) (A) (A) (A) (A) (A) (A)
                 (A) (A) (A) (A) (A) (A) (A) (A) (A) (A) (A) (A)
                 (A) (A) (A) (A) (A) (A) (A) (A) (A) (A) (A) (A)
                 (A) (A) (A) (A) (A) (A) (A) (A) (A) (A) (A) (A)
                 (A) (A) (A) (A) (A) (A) (A) (A) (A) (A) (A) (A)
                 (A) (A) (A) (A) (A) (A) (A) (A) (A) (A) (A) (A)
                 (A) (A) (A) (A) (A) (A) (A) (A) (A) (A) (A) (A)
                 (A) (A) (A) (A) (A) (A) (A) (A) (A) (A) (A) (A)
                 (A) (A) (A) (A) (A)
 The electronic state is 1-A.
 Alpha  occ. eigenvalues -- -101.37874 -14.44886 -14.43734 -10.30965 -10.28212
 Alpha  occ. eigenvalues --  -10.25541 -10.23913 -10.22391 -10.22112  -9.29253
 Alpha  occ. eigenvalues --   -7.05093  -7.05079  -7.05047  -1.11132  -0.99493
 Alpha  occ. eigenvalues --   -0.84965  -0.81900  -0.76472  -0.70847  -0.67361
 Alpha  occ. eigenvalues --   -0.64989  -0.63793  -0.59661  -0.54368  -0.52617
 Alpha  occ. eigenvalues --   -0.52049  -0.50289  -0.48608  -0.47818  -0.46255
 Alpha  occ. eigenvalues --   -0.44065  -0.43194  -0.42157  -0.41642  -0.34498
 Alpha  occ. eigenvalues --   -0.30086  -0.18389  -0.18240  -0.17980
 Alpha virt. eigenvalues --   -0.07064  -0.03869  -0.01954  -0.01472  -0.00547
 Alpha virt. eigenvalues --   -0.00303   0.00862   0.01776   0.03280   0.03634
 Alpha virt. eigenvalues --    0.04082   0.04616   0.05231   0.05663   0.06638
 Alpha virt. eigenvalues --    0.07914   0.08437   0.08541   0.09692   0.10344
 Alpha virt. eigenvalues --    0.11131   0.11278   0.12389   0.12956   0.13813
 Alpha virt. eigenvalues --    0.13858   0.14124   0.15434   0.15500   0.16264
 Alpha virt. eigenvalues --    0.16615   0.16786   0.17509   0.17673   0.18257
 Alpha virt. eigenvalues --    0.18608   0.19122   0.19537   0.20136   0.21589
 Alpha virt. eigenvalues --    0.21623   0.21992   0.22728   0.23303   0.23750
 Alpha virt. eigenvalues --    0.24511   0.25994   0.26381   0.27045   0.27954
 Alpha virt. eigenvalues --    0.28940   0.30786   0.33864   0.35363   0.35683
 Alpha virt. eigenvalues --    0.37333   0.38155   0.39963   0.41650   0.43396
 Alpha virt. eigenvalues --    0.45470   0.45935   0.46804   0.49000   0.50908
 Alpha virt. eigenvalues --    0.51715   0.51766   0.54669   0.55638   0.56111
 Alpha virt. eigenvalues --    0.57075   0.57373   0.59012   0.59574   0.60259
 Alpha virt. eigenvalues --    0.61163   0.61512   0.62728   0.63438   0.64426
 Alpha virt. eigenvalues --    0.65168   0.66326   0.66569   0.68773   0.69455
 Alpha virt. eigenvalues --    0.72238   0.73895   0.74742   0.77384   0.79562
 Alpha virt. eigenvalues --    0.81653   0.83720   0.84543   0.88751   0.90688
 Alpha virt. eigenvalues --    0.92375   0.92535   0.94531   0.96977   0.99774
 Alpha virt. eigenvalues --    1.00816   1.02635   1.02799   1.03362   1.04542
 Alpha virt. eigenvalues --    1.05580   1.07901   1.09721   1.12843   1.13687
 Alpha virt. eigenvalues --    1.16011   1.19652   1.22908   1.25718   1.26585
 Alpha virt. eigenvalues --    1.30198   1.34393   1.38757   1.39742   1.42438
 Alpha virt. eigenvalues --    1.44475   1.45073   1.48010   1.48854   1.50438
 Alpha virt. eigenvalues --    1.51532   1.52625   1.53697   1.55191   1.57499
 Alpha virt. eigenvalues --    1.58074   1.59833   1.61282   1.62108   1.62458
 Alpha virt. eigenvalues --    1.65393   1.66471   1.68777   1.71004   1.72743
 Alpha virt. eigenvalues --    1.74547   1.76372   1.78393   1.80401   1.81911
 Alpha virt. eigenvalues --    1.83862   1.87008   1.92522   1.96017   1.98523
 Alpha virt. eigenvalues --    2.00821   2.03591   2.05787   2.08997   2.10078
 Alpha virt. eigenvalues --    2.14503   2.15388   2.18221   2.20940   2.23820
 Alpha virt. eigenvalues --    2.26024   2.29985   2.33092   2.38396   2.39519
 Alpha virt. eigenvalues --    2.39729   2.41268   2.42073   2.43536   2.44380
 Alpha virt. eigenvalues --    2.45988   2.47549   2.49258   2.50047   2.51632
 Alpha virt. eigenvalues --    2.53069   2.55645   2.55878   2.57279   2.57809
 Alpha virt. eigenvalues --    2.59503   2.60406   2.61946   2.64469   2.66818
 Alpha virt. eigenvalues --    2.71011   2.71996   2.74560   2.76896   2.78323
 Alpha virt. eigenvalues --    2.79394   2.82682   2.88077   2.91593   2.94743
 Alpha virt. eigenvalues --    2.94940   2.97403   3.08362   3.16825   3.23557
 Alpha virt. eigenvalues --    3.36421   3.52778   3.54347   3.59120   3.64257
 Alpha virt. eigenvalues --    3.69625   3.73873   3.75021   3.76101   3.78331
 Alpha virt. eigenvalues --    3.82269   3.84246   3.86776   3.90314   4.06695
 Alpha virt. eigenvalues --    4.17069   4.68155   4.88578   4.91903   5.22128
 Alpha virt. eigenvalues --    9.84286  23.70624  23.79526  23.85648  23.89971
 Alpha virt. eigenvalues --   23.91612  24.14495  25.95204  26.02334  26.11038
 Alpha virt. eigenvalues --   35.41298  35.56402 215.82207
     Molecular Orbital Coefficients:
                           1         2         3         4         5
                           O         O         O         O         O
     Eigenvalues --  -101.37874 -14.44886 -14.43734 -10.30965 -10.28212
   1 1   C  1S          0.00000   0.00001  -0.00001  -0.00003  -0.00007
   2        2S          0.00000   0.00002   0.00005  -0.00003  -0.00005
   3        2PX         0.00000  -0.00030   0.00008  -0.00003  -0.00005
   4        2PY         0.00000   0.00033  -0.00003  -0.00009   0.00005
   5        2PZ         0.00000   0.00007  -0.00001  -0.00002   0.00001
   6        3S          0.00000   0.00037  -0.00039  -0.00008  -0.00010
   7        3PX        -0.00001   0.00082  -0.00078   0.00003   0.00029
   8        3PY         0.00000  -0.00082  -0.00032   0.00037  -0.00038
   9        3PZ         0.00000  -0.00018  -0.00009   0.00007  -0.00010
  10        4S         -0.00014   0.00376   0.00080  -0.00061  -0.00179
  11        4PX         0.00011  -0.00038  -0.00002   0.00088  -0.00096
  12        4PY        -0.00014   0.00371  -0.00198   0.00105  -0.00208
  13        4PZ        -0.00003   0.00099  -0.00049   0.00037  -0.00058
  14        5S         -0.00119  -0.03627   0.01710   0.02287  -0.00653
  15        5PX         0.00051  -0.00332   0.00046   0.00203   0.00144
  16        5PY        -0.00054  -0.00553   0.00355   0.00290  -0.00276
  17        5PZ        -0.00004  -0.00198   0.00089  -0.00035  -0.00158
  18        6D 0        0.00000   0.00009  -0.00006  -0.00009  -0.00008
  19        6D+1        0.00000   0.00023  -0.00002   0.00000   0.00005
  20        6D-1        0.00000  -0.00007   0.00017   0.00011   0.00004
  21        6D+2        0.00000   0.00032  -0.00050  -0.00026  -0.00007
  22        6D-2        0.00000   0.00094  -0.00005   0.00001   0.00023
  23 2   C  1S          0.00000  -0.00001   0.00001  -0.00002  -0.00002
  24        2S          0.00000   0.00005   0.00002  -0.00002   0.00001
  25        2PX         0.00000  -0.00004  -0.00005   0.00008  -0.00002
  26        2PY         0.00000  -0.00008   0.00044  -0.00003   0.00000
  27        2PZ         0.00000  -0.00001   0.00011  -0.00001   0.00000
  28        3S          0.00003  -0.00038   0.00042  -0.00005  -0.00020
  29        3PX         0.00002   0.00080   0.00008  -0.00030   0.00013
  30        3PY        -0.00001   0.00035  -0.00114   0.00020   0.00004
  31        3PZ        -0.00001   0.00010  -0.00027   0.00005   0.00002
  32        4S         -0.00008   0.00006   0.00300  -0.00105   0.00251
  33        4PX        -0.00033   0.00207  -0.00165  -0.00124  -0.00201
  34        4PY         0.00025  -0.00081   0.00315   0.00042   0.00077
  35        4PZ         0.00005  -0.00001   0.00071  -0.00006   0.00012
  36        5S          0.00058   0.03653  -0.01515  -0.01377   0.01113
  37        5PX        -0.00090  -0.01020   0.00204   0.00845  -0.00506
  38        5PY         0.00070   0.00096  -0.00189   0.00247   0.00354
  39        5PZ        -0.00002   0.00011  -0.00055   0.00202   0.00101
  40        6D 0        0.00000  -0.00007   0.00006  -0.00010  -0.00001
  41        6D+1       -0.00001  -0.00008   0.00013  -0.00006   0.00000
  42        6D-1        0.00000   0.00003  -0.00025   0.00003   0.00001
  43        6D+2       -0.00001  -0.00008   0.00091   0.00002  -0.00006
  44        6D-2       -0.00001  -0.00045   0.00034  -0.00024   0.00002
  45 3   C  1S          0.00000   0.00000   0.00000   0.56291   0.00007
  46        2S          0.00000   0.00010   0.00010   0.46318   0.00007
  47        2PX         0.00000  -0.00029   0.00052   0.00008  -0.00005
  48        2PY         0.00000  -0.00041  -0.00009  -0.00044  -0.00005
  49        2PZ         0.00000  -0.00011  -0.00001  -0.00010   0.00000
  50        3S         -0.00001   0.00006   0.00009   0.01966  -0.00013
  51        3PX         0.00001   0.00085  -0.00171   0.00011   0.00029
  52        3PY        -0.00001   0.00136   0.00035   0.00010   0.00039
  53        3PZ         0.00000   0.00035   0.00003   0.00000   0.00005
  54        4S          0.00033   0.00569   0.00532  -0.00920  -0.00058
  55        4PX         0.00001  -0.00071   0.00344  -0.00044  -0.00206
  56        4PY        -0.00010  -0.00480  -0.00339   0.00072   0.00067
  57        4PZ        -0.00004  -0.00108  -0.00071   0.00019   0.00014
  58        5S          0.00057  -0.00285  -0.00265  -0.02197  -0.00156
  59        5PX        -0.00007   0.00079  -0.00483  -0.00480  -0.00229
  60        5PY        -0.00022   0.00102  -0.00117   0.00288   0.00153
  61        5PZ        -0.00004   0.00037  -0.00051   0.00047   0.00023
  62        6D 0       -0.00001   0.00011   0.00025  -0.00170  -0.00008
  63        6D+1        0.00000  -0.00026   0.00011  -0.00008  -0.00006
  64        6D-1        0.00000  -0.00027   0.00020   0.00089   0.00004
  65        6D+2        0.00000   0.00061  -0.00112  -0.00052   0.00004
  66        6D-2       -0.00001  -0.00107   0.00064  -0.00074  -0.00018
  67 4   N  1S          0.00000   0.55737   0.00054  -0.00007  -0.00003
  68        2S          0.00000   0.46567   0.00052  -0.00003  -0.00006
  69        2PX         0.00000  -0.00008   0.00005   0.00028  -0.00023
  70        2PY         0.00000   0.00004   0.00006   0.00036  -0.00002
  71        2PZ         0.00000   0.00004   0.00001   0.00010  -0.00003
  72        3S          0.00000   0.01649  -0.00032   0.00065   0.00024
  73        3PX         0.00000   0.00092  -0.00033  -0.00074   0.00015
  74        3PY         0.00000   0.00036  -0.00037  -0.00086   0.00005
  75        3PZ         0.00000   0.00018  -0.00008  -0.00024   0.00009
  76        4S          0.00000  -0.01743  -0.00084  -0.00331   0.00295
  77        4PX        -0.00003  -0.00143  -0.00117  -0.00185   0.00045
  78        4PY        -0.00009  -0.00063  -0.00083  -0.00183  -0.00071
  79        4PZ        -0.00002  -0.00040  -0.00036  -0.00063   0.00000
  80        5S          0.00017   0.01448  -0.01135   0.00879   0.00896
  81        5PX        -0.00016   0.00782  -0.01306  -0.00193  -0.01803
  82        5PY        -0.00029   0.00009  -0.00118   0.00342  -0.00452
  83        5PZ        -0.00006   0.00023  -0.00070   0.00132  -0.00061
  84        6D 0        0.00000  -0.00044   0.00005   0.00061   0.00011
  85        6D+1        0.00000   0.00003  -0.00004  -0.00023  -0.00005
  86        6D-1        0.00000   0.00023  -0.00007  -0.00039   0.00005
  87        6D+2        0.00000  -0.00007   0.00016   0.00024  -0.00038
  88        6D-2        0.00000   0.00012  -0.00018  -0.00079  -0.00003
  89 5   H  1S          0.00000  -0.00014   0.00000  -0.00009   0.00007
  90        2S         -0.00001  -0.00001  -0.00116   0.00051  -0.00106
  91        3S         -0.00011   0.00171  -0.00053   0.00134  -0.00098
  92        4PX        -0.00001   0.00019  -0.00015  -0.00005   0.00006
  93        4PY         0.00000  -0.00033  -0.00030   0.00008  -0.00027
  94        4PZ         0.00000  -0.00007  -0.00007   0.00002  -0.00005
  95 6   H  1S         -0.00001   0.00003  -0.00013  -0.00009  -0.00002
  96        2S          0.00007  -0.00113  -0.00025   0.00062   0.00022
  97        3S          0.00061  -0.00022   0.00177   0.00124   0.00108
  98        4PX         0.00001   0.00030   0.00015  -0.00005  -0.00001
  99        4PY         0.00001  -0.00007  -0.00035   0.00009   0.00004
 100        4PZ         0.00001   0.00002  -0.00008   0.00003  -0.00001
 101 7   H  1S          0.00000  -0.00019  -0.00021  -0.00003   0.00004
 102        2S         -0.00001  -0.00001   0.00018  -0.00391  -0.00077
 103        3S          0.00008   0.00138   0.00143   0.00153  -0.00097
 104        4PX         0.00000   0.00022  -0.00046  -0.00097   0.00011
 105        4PY         0.00000   0.00047   0.00017   0.00224   0.00025
 106        4PZ         0.00000   0.00012   0.00002   0.00052   0.00007
 107 8   N  1S          0.00000  -0.00055   0.55737  -0.00007   0.00000
 108        2S          0.00000  -0.00039   0.46567  -0.00002   0.00001
 109        2PX         0.00000  -0.00008  -0.00010  -0.00048  -0.00003
 110        2PY         0.00000   0.00002   0.00009   0.00006   0.00001
 111        2PZ         0.00000   0.00000  -0.00002   0.00000   0.00000
 112        3S          0.00001  -0.00036   0.01642   0.00064  -0.00003
 113        3PX         0.00000   0.00053  -0.00090   0.00126   0.00016
 114        3PY        -0.00001  -0.00006  -0.00042  -0.00014  -0.00003
 115        3PZ         0.00000   0.00000  -0.00013  -0.00001   0.00001
 116        4S         -0.00013  -0.00074  -0.01715  -0.00362  -0.00009
 117        4PX         0.00013   0.00089   0.00096   0.00261  -0.00094
 118        4PY         0.00015   0.00050   0.00072  -0.00003   0.00040
 119        4PZ         0.00004   0.00015   0.00020   0.00017   0.00007
 120        5S         -0.00034  -0.01157   0.01396   0.01256   0.01017
 121        5PX         0.00040   0.00712  -0.00959  -0.01061  -0.00832
 122        5PY         0.00022   0.00808  -0.00570   0.00014  -0.00272
 123        5PZ         0.00012   0.00217  -0.00160  -0.00068  -0.00130
 124        6D 0        0.00000   0.00006  -0.00048   0.00070   0.00003
 125        6D+1        0.00000   0.00004   0.00000   0.00000   0.00000
 126        6D-1        0.00000   0.00003   0.00017  -0.00008   0.00000
 127        6D+2        0.00000  -0.00017   0.00016  -0.00088  -0.00002
 128        6D-2        0.00000   0.00017  -0.00013   0.00029   0.00001
 129 9   C  1S          0.00000   0.00001   0.00000  -0.00007   0.56303
 130        2S          0.00000  -0.00002   0.00001  -0.00004   0.46322
 131        2PX         0.00000   0.00032   0.00005   0.00003   0.00094
 132        2PY         0.00000   0.00000   0.00001  -0.00005   0.00001
 133        2PZ         0.00000   0.00003   0.00001   0.00001   0.00017
 134        3S          0.00000  -0.00002  -0.00004  -0.00014   0.01950
 135        3PX        -0.00001  -0.00060  -0.00025  -0.00019  -0.00133
 136        3PY         0.00000   0.00011  -0.00002   0.00020   0.00067
 137        3PZ         0.00000  -0.00027  -0.00003  -0.00006  -0.00138
 138        4S         -0.00007   0.00426  -0.00137  -0.00060  -0.01757
 139        4PX        -0.00001   0.00168  -0.00036  -0.00058  -0.00265
 140        4PY         0.00000   0.00028   0.00101   0.00007   0.00122
 141        4PZ         0.00001  -0.00002   0.00062   0.00094  -0.00108
 142        5S          0.00049  -0.00371  -0.01640  -0.02071  -0.03530
 143        5PX         0.00003   0.00106  -0.00348  -0.00119  -0.00406
 144        5PY        -0.00012   0.00111  -0.00011   0.00175   0.00179
 145        5PZ         0.00005  -0.00191  -0.00160  -0.00425  -0.00478
 146        6D 0        0.00000   0.00030  -0.00003  -0.00003   0.00024
 147        6D+1        0.00000   0.00004   0.00000   0.00003   0.00032
 148        6D-1        0.00000   0.00002  -0.00003   0.00000   0.00041
 149        6D+2        0.00000  -0.00047  -0.00010  -0.00014  -0.00096
 150        6D-2        0.00000  -0.00006  -0.00001   0.00008  -0.00035
 151 10  C  1S          0.00000   0.00000   0.00000   0.00000   0.00106
 152        2S          0.00000   0.00002   0.00000   0.00000   0.00084
 153        2PX         0.00000   0.00004   0.00000   0.00000   0.00010
 154        2PY         0.00000   0.00005   0.00001  -0.00001   0.00024
 155        2PZ         0.00000  -0.00007   0.00001   0.00000  -0.00040
 156        3S          0.00001  -0.00012   0.00004   0.00012   0.00037
 157        3PX         0.00000  -0.00023   0.00001  -0.00001  -0.00023
 158        3PY         0.00000  -0.00028  -0.00003   0.00005  -0.00065
 159        3PZ        -0.00001   0.00039  -0.00002  -0.00002   0.00098
 160        4S         -0.00003   0.00030  -0.00033  -0.00104   0.00396
 161        4PX        -0.00003   0.00031   0.00010  -0.00057   0.00019
 162        4PY         0.00000   0.00013  -0.00069  -0.00051   0.00038
 163        4PZ         0.00002  -0.00002   0.00005   0.00015  -0.00105
 164        5S         -0.00030   0.00743   0.00535   0.01604   0.01908
 165        5PX        -0.00004   0.00134   0.00099   0.00243   0.00259
 166        5PY        -0.00003   0.00092   0.00073   0.00216   0.00204
 167        5PZ         0.00007  -0.00136  -0.00080  -0.00274  -0.00326
 168        6D 0        0.00000  -0.00008   0.00000   0.00000  -0.00053
 169        6D+1        0.00000   0.00012   0.00000   0.00000   0.00035
 170        6D-1        0.00000   0.00008   0.00003  -0.00001   0.00062
 171        6D+2        0.00000   0.00006   0.00000   0.00002   0.00019
 172        6D-2        0.00000  -0.00006  -0.00004  -0.00001  -0.00021
 173 11  H  1S          0.00000   0.00000  -0.00002   0.00002   0.00002
 174        2S          0.00000  -0.00110   0.00032  -0.00001  -0.00240
 175        3S         -0.00005   0.00123  -0.00067   0.00099   0.00197
 176        4PX         0.00000  -0.00010   0.00000  -0.00001  -0.00042
 177        4PY         0.00000  -0.00019  -0.00003  -0.00002  -0.00117
 178        4PZ         0.00000  -0.00024   0.00003  -0.00001  -0.00170
 179 12  H  1S          0.00000   0.00001   0.00003  -0.00003   0.00008
 180        2S          0.00001  -0.00110  -0.00052  -0.00035  -0.00297
 181        3S         -0.00003   0.00086  -0.00068  -0.00010   0.00233
 182        4PX         0.00000  -0.00016   0.00000  -0.00006  -0.00070
 183        4PY         0.00000   0.00027   0.00006   0.00003   0.00206
 184        4PZ         0.00000   0.00001  -0.00004  -0.00007  -0.00001
 185 13  H  1S          0.00000  -0.00004  -0.00002  -0.00001  -0.00003
 186        2S          0.00000  -0.00006   0.00009   0.00002  -0.00101
 187        3S         -0.00001   0.00028  -0.00006  -0.00051  -0.00067
 188        4PX         0.00000  -0.00007   0.00001   0.00000  -0.00038
 189        4PY         0.00000   0.00001   0.00005   0.00004   0.00001
 190        4PZ         0.00000  -0.00003   0.00001   0.00002  -0.00004
 191 14  H  1S          0.00000   0.00005   0.00003  -0.00003  -0.00005
 192        2S          0.00000  -0.00035  -0.00027   0.00027  -0.00090
 193        3S          0.00002   0.00004  -0.00067  -0.00047  -0.00096
 194        4PX         0.00000  -0.00004   0.00002   0.00004   0.00012
 195        4PY         0.00000  -0.00016  -0.00004   0.00006  -0.00030
 196        4PZ         0.00000   0.00003   0.00001  -0.00002  -0.00002
 197 15  H  1S          0.00000   0.00004   0.00000  -0.00004  -0.00008
 198        2S          0.00001  -0.00028   0.00005   0.00047  -0.00070
 199        3S         -0.00003  -0.00032  -0.00023  -0.00103  -0.00068
 200        4PX         0.00000  -0.00005  -0.00003  -0.00003   0.00009
 201        4PY         0.00000   0.00005   0.00001  -0.00004   0.00020
 202        4PZ         0.00000   0.00013   0.00001   0.00000   0.00019
 203 16  C  1S          0.00000   0.00000   0.00001  -0.00003  -0.00001
 204        2S          0.00000   0.00001  -0.00003  -0.00001   0.00000
 205        2PX         0.00000  -0.00004  -0.00023   0.00002   0.00000
 206        2PY         0.00000  -0.00003  -0.00022  -0.00006   0.00000
 207        2PZ         0.00000  -0.00001  -0.00005  -0.00002   0.00000
 208        3S          0.00004  -0.00006   0.00001  -0.00020  -0.00013
 209        3PX         0.00002   0.00020   0.00043   0.00003   0.00002
 210        3PY         0.00000   0.00018   0.00048   0.00028   0.00003
 211        3PZ         0.00001   0.00005   0.00009   0.00009   0.00000
 212        4S         -0.00041  -0.00062   0.00540   0.00022   0.00131
 213        4PX         0.00000  -0.00020  -0.00123   0.00008  -0.00001
 214        4PY         0.00007   0.00034  -0.00147   0.00003  -0.00056
 215        4PZ        -0.00001  -0.00006  -0.00031  -0.00008  -0.00010
 216        5S         -0.00082  -0.00503   0.00866   0.00764  -0.00026
 217        5PX         0.00001   0.00163  -0.00186  -0.00174   0.00041
 218        5PY         0.00027   0.00077  -0.00147  -0.00139  -0.00012
 219        5PZ         0.00003   0.00010  -0.00035  -0.00035   0.00002
 220        6D 0        0.00000   0.00006   0.00031  -0.00001   0.00000
 221        6D+1        0.00001  -0.00004  -0.00014  -0.00003  -0.00001
 222        6D-1        0.00000  -0.00002  -0.00013   0.00000   0.00001
 223        6D+2        0.00001   0.00001  -0.00009   0.00012  -0.00004
 224        6D-2        0.00000  -0.00008  -0.00043  -0.00010  -0.00001
 225 17  H  1S         -0.00001   0.00000   0.00003   0.00000   0.00001
 226        2S          0.00005   0.00002  -0.00111  -0.00006  -0.00025
 227        3S          0.00018  -0.00075   0.00067   0.00079   0.00093
 228        4PX         0.00000   0.00005   0.00025   0.00003   0.00000
 229        4PY        -0.00001   0.00000  -0.00013  -0.00004  -0.00003
 230        4PZ        -0.00001   0.00001   0.00005   0.00000   0.00000
 231 18  H  1S          0.00000   0.00003  -0.00003   0.00001   0.00003
 232        2S          0.00004  -0.00027  -0.00102  -0.00004  -0.00019
 233        3S          0.00004  -0.00110   0.00083  -0.00041   0.00074
 234        4PX         0.00000   0.00007   0.00006   0.00008   0.00002
 235        4PY        -0.00001   0.00002   0.00021   0.00002   0.00004
 236        4PZ         0.00001  -0.00007  -0.00025  -0.00003  -0.00001
 237 19  H  1S          0.00000   0.00002   0.00000  -0.00003   0.00003
 238        2S          0.00005  -0.00030  -0.00104  -0.00009  -0.00022
 239        3S          0.00004  -0.00089   0.00074  -0.00036   0.00100
 240        4PX         0.00000   0.00001  -0.00003   0.00006   0.00000
 241        4PY        -0.00001   0.00002   0.00022   0.00002   0.00003
 242        4PZ        -0.00001   0.00006   0.00023   0.00007   0.00001
 243 20  Cl 1S          0.41161   0.00000   0.00000   0.00000   0.00000
 244        2S          0.65408   0.00000   0.00000   0.00000   0.00000
 245        3S          0.01499   0.00000   0.00001  -0.00001   0.00000
 246        4S         -0.00395   0.00001  -0.00002   0.00003  -0.00001
 247        5S          0.00146  -0.00004   0.00007  -0.00010   0.00004
 248        6S         -0.00100   0.00009  -0.00012   0.00025  -0.00015
 249        7S          0.00081   0.00067   0.00008  -0.00265   0.00119
 250        7PX        -0.00037  -0.00020  -0.00016   0.00089  -0.00044
 251        7PY         0.00009  -0.00008  -0.00004  -0.00042  -0.00021
 252        7PZ        -0.00008  -0.00017  -0.00002   0.00019  -0.00025
 253        8PX        -0.00002  -0.00001   0.00000   0.00000   0.00001
 254        8PY         0.00001   0.00000   0.00000   0.00000  -0.00001
 255        8PZ         0.00000   0.00000   0.00000   0.00000   0.00000
 256        9PX         0.00000   0.00000   0.00000   0.00000   0.00000
 257        9PY         0.00000   0.00000   0.00000   0.00000   0.00000
 258        9PZ         0.00000   0.00000   0.00000   0.00000   0.00000
 259       10PX         0.00002   0.00002   0.00000   0.00001  -0.00002
 260       10PY        -0.00001   0.00001   0.00000   0.00000   0.00002
 261       10PZ         0.00000   0.00001   0.00000   0.00000  -0.00002
 262       11PX        -0.00003  -0.00005  -0.00001  -0.00003   0.00005
 263       11PY         0.00002  -0.00001   0.00000  -0.00002  -0.00005
 264       11PZ        -0.00001  -0.00001  -0.00001  -0.00001   0.00003
 265       12PX         0.00019   0.00003   0.00015   0.00014  -0.00011
 266       12PY        -0.00005   0.00003   0.00009   0.00014   0.00017
 267       12PZ         0.00005  -0.00001   0.00008   0.00007  -0.00003
 268       13D 0        0.00000   0.00000   0.00001   0.00000   0.00000
 269       13D+1       -0.00001   0.00001  -0.00001  -0.00001   0.00000
 270       13D-1        0.00000   0.00000   0.00000  -0.00001   0.00000
 271       13D+2       -0.00001   0.00000  -0.00002   0.00000   0.00000
 272       13D-2        0.00000   0.00001  -0.00001  -0.00002  -0.00001
                           6         7         8         9        10
                           O         O         O         O         O
     Eigenvalues --   -10.25541 -10.23913 -10.22391 -10.22112  -9.29253
   1 1   C  1S          0.56278  -0.01182   0.00001   0.00000   0.00000
   2        2S          0.46303  -0.00943   0.00003   0.00000  -0.00001
   3        2PX        -0.00084   0.00080   0.00002   0.00000   0.00003
   4        2PY         0.00045   0.00028   0.00000  -0.00002  -0.00001
   5        2PZ         0.00008   0.00009   0.00000   0.00001  -0.00001
   6        3S          0.02026  -0.00115  -0.00015   0.00009   0.00002
   7        3PX         0.00189  -0.00378  -0.00013  -0.00006  -0.00012
   8        3PY        -0.00025  -0.00154   0.00002   0.00008   0.00006
   9        3PZ         0.00001  -0.00049   0.00001  -0.00002   0.00003
  10        4S         -0.01710   0.00603   0.00318   0.00090  -0.00241
  11        4PX        -0.00335   0.00382   0.00140   0.00191   0.00199
  12        4PY        -0.00589   0.00229   0.00191   0.00025  -0.00250
  13        4PZ        -0.00154   0.00067   0.00043  -0.00005  -0.00064
  14        5S         -0.04731   0.02606  -0.02606   0.00391  -0.02395
  15        5PX        -0.00092   0.00709  -0.00645   0.00735   0.01000
  16        5PY        -0.00790   0.00371  -0.00200  -0.00186  -0.01086
  17        5PZ        -0.00218   0.00093  -0.00058  -0.00018  -0.00083
  18        6D 0       -0.00168   0.00088   0.00000   0.00001  -0.00006
  19        6D+1        0.00048  -0.00049  -0.00001   0.00005   0.00003
  20        6D-1        0.00086  -0.00010   0.00000  -0.00002   0.00002
  21        6D+2       -0.00020  -0.00134   0.00000  -0.00003   0.00002
  22        6D-2        0.00153  -0.00162  -0.00004   0.00005   0.00007
  23 2   C  1S          0.01165   0.56277   0.00010   0.00000   0.00000
  24        2S          0.00989   0.46307   0.00009   0.00001  -0.00005
  25        2PX        -0.00075  -0.00041   0.00000  -0.00001  -0.00003
  26        2PY        -0.00030   0.00106   0.00004   0.00001   0.00007
  27        2PZ        -0.00010   0.00022   0.00001  -0.00001   0.00005
  28        3S         -0.00034   0.02003  -0.00007  -0.00002   0.00047
  29        3PX         0.00357  -0.00110   0.00003   0.00008   0.00033
  30        3PY         0.00142  -0.00147  -0.00031  -0.00006  -0.00023
  31        3PZ         0.00050  -0.00027  -0.00009   0.00004  -0.00017
  32        4S          0.00500  -0.01784  -0.00228  -0.00170  -0.00154
  33        4PX        -0.00402   0.00664   0.00262   0.00021  -0.00599
  34        4PY         0.00043  -0.00023  -0.00043   0.00078   0.00477
  35        4PZ        -0.00006   0.00020   0.00012   0.00005   0.00094
  36        5S          0.03431  -0.03727   0.02998  -0.00396   0.01175
  37        5PX        -0.01175   0.00582  -0.00802  -0.00075  -0.01832
  38        5PY         0.00103  -0.00068  -0.00257   0.00541   0.01398
  39        5PZ        -0.00030   0.00010  -0.00118   0.00114  -0.00046
  40        6D 0        0.00086  -0.00182  -0.00004   0.00000   0.00000
  41        6D+1       -0.00039   0.00030   0.00003  -0.00001  -0.00013
  42        6D-1       -0.00004   0.00030  -0.00001  -0.00001   0.00008
  43        6D+2       -0.00158   0.00181   0.00014  -0.00002  -0.00021
  44        6D-2       -0.00124  -0.00008   0.00004   0.00000  -0.00018
  45 3   C  1S          0.00003   0.00002   0.00003   0.00000   0.00000
  46        2S          0.00003   0.00002   0.00004  -0.00001   0.00001
  47        2PX        -0.00003  -0.00003   0.00008   0.00001  -0.00001
  48        2PY         0.00008   0.00007  -0.00001   0.00001   0.00004
  49        2PZ         0.00002   0.00001   0.00000  -0.00001  -0.00002
  50        3S         -0.00011  -0.00013  -0.00015   0.00009  -0.00026
  51        3PX         0.00003   0.00013  -0.00055  -0.00007   0.00008
  52        3PY        -0.00032  -0.00018   0.00009  -0.00013  -0.00021
  53        3PZ        -0.00008  -0.00002   0.00001   0.00005   0.00006
  54        4S         -0.00061  -0.00085  -0.00090   0.00049   0.00615
  55        4PX         0.00118  -0.00079   0.00049   0.00124   0.00030
  56        4PY        -0.00051  -0.00077   0.00124  -0.00016  -0.00200
  57        4PZ        -0.00012  -0.00025   0.00029  -0.00053  -0.00086
  58        5S         -0.00389  -0.00435   0.00394  -0.00200   0.01092
  59        5PX         0.00025  -0.00032  -0.00077   0.00200  -0.00168
  60        5PY         0.00137   0.00136  -0.00003   0.00189  -0.00446
  61        5PZ         0.00037   0.00019   0.00002  -0.00009  -0.00078
  62        6D 0       -0.00010  -0.00012  -0.00003   0.00004  -0.00009
  63        6D+1       -0.00003  -0.00005   0.00002   0.00003   0.00000
  64        6D-1        0.00010   0.00006   0.00007   0.00001   0.00004
  65        6D+2       -0.00023  -0.00009  -0.00019   0.00002   0.00001
  66        6D-2       -0.00010  -0.00023   0.00004  -0.00002  -0.00009
  67 4   N  1S         -0.00005   0.00000   0.00000   0.00000   0.00000
  68        2S         -0.00007   0.00004   0.00001   0.00002   0.00000
  69        2PX         0.00028   0.00002   0.00001  -0.00006   0.00000
  70        2PY        -0.00021  -0.00009   0.00002  -0.00001  -0.00001
  71        2PZ        -0.00004  -0.00002   0.00001   0.00001   0.00000
  72        3S          0.00081  -0.00009   0.00000  -0.00013   0.00000
  73        3PX        -0.00056  -0.00026  -0.00003   0.00033   0.00002
  74        3PY         0.00018   0.00048  -0.00010   0.00005   0.00007
  75        3PZ         0.00001   0.00011  -0.00004  -0.00006   0.00001
  76        4S         -0.00133  -0.00184  -0.00029   0.00062  -0.00002
  77        4PX         0.00047   0.00021  -0.00033  -0.00134  -0.00065
  78        4PY         0.00077   0.00010   0.00072  -0.00028  -0.00156
  79        4PZ         0.00017  -0.00001   0.00018   0.00007  -0.00036
  80        5S          0.02337  -0.01382   0.01065   0.00350   0.00307
  81        5PX         0.01666  -0.00851   0.00426  -0.01113  -0.00321
  82        5PY        -0.00272  -0.00393   0.00125  -0.00331  -0.00557
  83        5PZ         0.00025  -0.00132   0.00075  -0.00028  -0.00123
  84        6D 0        0.00049   0.00005   0.00003   0.00002   0.00002
  85        6D+1        0.00008   0.00006   0.00000  -0.00001  -0.00001
  86        6D-1       -0.00018  -0.00005  -0.00002  -0.00003  -0.00001
  87        6D+2       -0.00010   0.00016   0.00001  -0.00003   0.00000
  88        6D-2        0.00049   0.00026  -0.00001  -0.00001  -0.00003
  89 5   H  1S          0.00014  -0.00012  -0.00003  -0.00002   0.00001
  90        2S         -0.00522  -0.00029   0.00028   0.00029  -0.00019
  91        3S          0.00151   0.00094   0.00082  -0.00111  -0.00217
  92        4PX        -0.00060  -0.00045  -0.00003   0.00001  -0.00013
  93        4PY        -0.00246  -0.00023   0.00003  -0.00003  -0.00002
  94        4PZ        -0.00061  -0.00006   0.00001  -0.00003  -0.00001
  95 6   H  1S         -0.00004   0.00018   0.00002  -0.00001  -0.00018
  96        2S         -0.00033  -0.00488  -0.00065   0.00009   0.00111
  97        3S          0.00231   0.00288  -0.00173   0.00070   0.01184
  98        4PX         0.00042   0.00213   0.00007  -0.00003   0.00029
  99        4PY         0.00014  -0.00120  -0.00017  -0.00002   0.00013
 100        4PZ         0.00004  -0.00006  -0.00003   0.00000   0.00023
 101 7   H  1S         -0.00007  -0.00005   0.00000  -0.00005   0.00001
 102        2S          0.00029   0.00007  -0.00039   0.00045  -0.00013
 103        3S          0.00172   0.00174  -0.00106  -0.00032   0.00150
 104        4PX        -0.00005   0.00008  -0.00019  -0.00002   0.00001
 105        4PY        -0.00006   0.00002   0.00011  -0.00006   0.00006
 106        4PZ        -0.00001   0.00001   0.00002   0.00002   0.00002
 107 8   N  1S          0.00000  -0.00005  -0.00003   0.00000   0.00000
 108        2S          0.00003  -0.00008  -0.00007   0.00000  -0.00001
 109        2PX         0.00006  -0.00003   0.00015  -0.00001  -0.00002
 110        2PY        -0.00007  -0.00034   0.00012  -0.00001   0.00004
 111        2PZ        -0.00002  -0.00009   0.00003   0.00001   0.00000
 112        3S         -0.00005   0.00086   0.00027   0.00002   0.00017
 113        3PX        -0.00019   0.00029   0.00000   0.00004   0.00002
 114        3PY         0.00045   0.00049   0.00005   0.00005  -0.00022
 115        3PZ         0.00010   0.00014   0.00002  -0.00002  -0.00001
 116        4S         -0.00212  -0.00168   0.00245  -0.00082  -0.00242
 117        4PX        -0.00027  -0.00146  -0.00108  -0.00016   0.00230
 118        4PY         0.00034   0.00027  -0.00079  -0.00038   0.00276
 119        4PZ         0.00010  -0.00003  -0.00032   0.00007   0.00067
 120        5S         -0.01609   0.01940   0.00219   0.00290  -0.00651
 121        5PX         0.00652  -0.01323   0.01178  -0.00459   0.00761
 122        5PY         0.00304  -0.01390   0.00778  -0.00166   0.00434
 123        5PZ         0.00101  -0.00370   0.00230  -0.00040   0.00239
 124        6D 0        0.00005   0.00045   0.00006  -0.00001   0.00004
 125        6D+1        0.00006  -0.00003  -0.00008   0.00000   0.00000
 126        6D-1       -0.00008  -0.00033  -0.00003   0.00001  -0.00001
 127        6D+2        0.00026   0.00045  -0.00004  -0.00001   0.00002
 128        6D-2        0.00020  -0.00004  -0.00031   0.00000   0.00002
 129 9   C  1S          0.00007   0.00001   0.00001  -0.00108   0.00000
 130        2S          0.00007   0.00003   0.00001  -0.00093   0.00000
 131        2PX         0.00000   0.00002   0.00001  -0.00014   0.00002
 132        2PY         0.00002   0.00001   0.00000  -0.00023  -0.00001
 133        2PZ         0.00002   0.00001   0.00001   0.00039   0.00000
 134        3S         -0.00019  -0.00029  -0.00009   0.00054   0.00006
 135        3PX        -0.00001  -0.00014  -0.00005   0.00008  -0.00013
 136        3PY        -0.00007   0.00002  -0.00001   0.00050   0.00004
 137        3PZ        -0.00010  -0.00006  -0.00006  -0.00088   0.00001
 138        4S          0.00198   0.00188   0.00032  -0.00065  -0.00128
 139        4PX         0.00067   0.00080  -0.00012  -0.00230  -0.00028
 140        4PY         0.00025  -0.00040  -0.00069  -0.00078   0.00006
 141        4PZ         0.00044   0.00010   0.00024   0.00153   0.00024
 142        5S          0.00358  -0.00377  -0.00516   0.01938   0.00950
 143        5PX         0.00394   0.00071  -0.00108  -0.00013   0.00061
 144        5PY         0.00067   0.00043  -0.00019  -0.00281  -0.00235
 145        5PZ        -0.00218  -0.00125  -0.00071   0.00352   0.00085
 146        6D 0       -0.00003   0.00001   0.00002  -0.00029   0.00003
 147        6D+1       -0.00001  -0.00001   0.00000   0.00036   0.00001
 148        6D-1        0.00002   0.00003   0.00001   0.00048   0.00001
 149        6D+2       -0.00001  -0.00001  -0.00002  -0.00010  -0.00001
 150        6D-2       -0.00006  -0.00004  -0.00002  -0.00024   0.00007
 151 10  C  1S          0.00000   0.00000   0.00001   0.56295   0.00000
 152        2S          0.00000   0.00000   0.00001   0.46316  -0.00001
 153        2PX         0.00000   0.00002   0.00000   0.00009  -0.00001
 154        2PY         0.00002   0.00000   0.00000   0.00017   0.00001
 155        2PZ         0.00000  -0.00001  -0.00001  -0.00030   0.00002
 156        3S          0.00005   0.00009   0.00005   0.01962   0.00010
 157        3PX         0.00001  -0.00006  -0.00001  -0.00051   0.00004
 158        3PY        -0.00012   0.00003   0.00001  -0.00079  -0.00004
 159        3PZ         0.00001   0.00004   0.00001   0.00132  -0.00010
 160        4S          0.00000  -0.00149  -0.00052  -0.01215  -0.00062
 161        4PX        -0.00052  -0.00008  -0.00042  -0.00151  -0.00049
 162        4PY         0.00004  -0.00005   0.00008  -0.00115   0.00001
 163        4PZ        -0.00022   0.00043   0.00022   0.00168   0.00040
 164        5S          0.00732   0.00534   0.00155  -0.01781  -0.00586
 165        5PX         0.00082   0.00081   0.00027  -0.00130  -0.00086
 166        5PY         0.00098   0.00047   0.00038  -0.00150  -0.00048
 167        5PZ        -0.00135  -0.00109  -0.00015   0.00294   0.00142
 168        6D 0       -0.00001   0.00001  -0.00002  -0.00040  -0.00001
 169        6D+1        0.00001   0.00002   0.00001   0.00041   0.00001
 170        6D-1       -0.00002  -0.00001  -0.00001   0.00052   0.00000
 171        6D+2        0.00001   0.00001   0.00002   0.00007   0.00000
 172        6D-2       -0.00003   0.00001   0.00001  -0.00024  -0.00001
 173 11  H  1S          0.00000   0.00002   0.00002  -0.00011   0.00001
 174        2S         -0.00010  -0.00044  -0.00023  -0.00016   0.00000
 175        3S          0.00129  -0.00129   0.00066  -0.00348  -0.00098
 176        4PX        -0.00008  -0.00006  -0.00001  -0.00010  -0.00004
 177        4PY         0.00002  -0.00001   0.00001  -0.00012   0.00000
 178        4PZ        -0.00003  -0.00008  -0.00005  -0.00021   0.00000
 179 12  H  1S          0.00003   0.00002   0.00000  -0.00010  -0.00002
 180        2S         -0.00038  -0.00028   0.00002  -0.00043   0.00015
 181        3S          0.00234   0.00019   0.00079  -0.00222  -0.00051
 182        4PX         0.00000  -0.00002   0.00000  -0.00007   0.00002
 183        4PY         0.00004   0.00006  -0.00001   0.00025  -0.00002
 184        4PZ        -0.00002   0.00000  -0.00001  -0.00003  -0.00002
 185 13  H  1S          0.00001  -0.00004   0.00001   0.00022   0.00001
 186        2S         -0.00011   0.00029  -0.00009  -0.00331  -0.00008
 187        3S         -0.00031  -0.00022   0.00004   0.00332  -0.00019
 188        4PX        -0.00001   0.00004  -0.00001  -0.00210   0.00000
 189        4PY         0.00001  -0.00001  -0.00001  -0.00003   0.00000
 190        4PZ         0.00000  -0.00003  -0.00001  -0.00021  -0.00001
 191 14  H  1S          0.00001  -0.00003  -0.00002   0.00020   0.00002
 192        2S          0.00003   0.00027   0.00021  -0.00312  -0.00008
 193        3S          0.00008  -0.00072   0.00024   0.00334   0.00036
 194        4PX        -0.00002  -0.00003   0.00000   0.00086  -0.00001
 195        4PY        -0.00003   0.00004   0.00003  -0.00189   0.00000
 196        4PZ         0.00006   0.00002  -0.00001   0.00003   0.00001
 197 15  H  1S         -0.00004  -0.00001  -0.00001   0.00017  -0.00002
 198        2S          0.00039   0.00008   0.00014  -0.00289   0.00014
 199        3S         -0.00026  -0.00008  -0.00025   0.00317  -0.00054
 200        4PX         0.00000   0.00002   0.00001   0.00060   0.00000
 201        4PY        -0.00001   0.00000  -0.00002   0.00110  -0.00002
 202        4PZ        -0.00002  -0.00002  -0.00001   0.00163  -0.00002
 203 16  C  1S         -0.00002  -0.00010   0.56298  -0.00001   0.00000
 204        2S          0.00000  -0.00008   0.46317  -0.00001  -0.00004
 205        2PX        -0.00002  -0.00003  -0.00122   0.00001  -0.00004
 206        2PY         0.00000   0.00004  -0.00044   0.00000  -0.00006
 207        2PZ         0.00000   0.00000  -0.00024   0.00000  -0.00003
 208        3S         -0.00020  -0.00022   0.01972  -0.00003   0.00072
 209        3PX         0.00009   0.00012   0.00176  -0.00007   0.00030
 210        3PY         0.00006  -0.00015   0.00102   0.00000   0.00006
 211        3PZ         0.00000   0.00001   0.00034  -0.00001   0.00011
 212        4S          0.00137   0.00301  -0.01271   0.00088  -0.00769
 213        4PX        -0.00057  -0.00112   0.00092   0.00007  -0.00001
 214        4PY        -0.00071  -0.00033   0.00137  -0.00041   0.00123
 215        4PZ        -0.00016  -0.00013   0.00035  -0.00011  -0.00016
 216        5S         -0.00107   0.00927  -0.01446  -0.00334  -0.01606
 217        5PX         0.00025  -0.00196   0.00242   0.00111  -0.00001
 218        5PY         0.00003  -0.00221   0.00266   0.00026   0.00545
 219        5PZ         0.00001  -0.00060   0.00061   0.00032   0.00058
 220        6D 0        0.00000  -0.00003   0.00053   0.00000  -0.00005
 221        6D+1       -0.00001   0.00000  -0.00032   0.00001   0.00010
 222        6D-1        0.00002   0.00004  -0.00022   0.00000  -0.00005
 223        6D+2       -0.00007  -0.00007  -0.00022   0.00001   0.00011
 224        6D-2        0.00001   0.00000  -0.00099   0.00000   0.00005
 225 17  H  1S         -0.00002  -0.00001   0.00018   0.00002  -0.00023
 226        2S         -0.00013  -0.00030  -0.00312  -0.00017   0.00079
 227        3S         -0.00072   0.00172   0.00318   0.00039   0.00362
 228        4PX         0.00001   0.00007   0.00164   0.00002   0.00005
 229        4PY        -0.00001   0.00005  -0.00127  -0.00001  -0.00030
 230        4PZ         0.00001   0.00003   0.00033   0.00001  -0.00010
 231 18  H  1S          0.00003   0.00004   0.00013   0.00001  -0.00005
 232        2S         -0.00025  -0.00029  -0.00289  -0.00008   0.00075
 233        3S          0.00005   0.00172   0.00232   0.00080   0.00076
 234        4PX        -0.00001   0.00003   0.00016  -0.00001   0.00001
 235        4PY         0.00005   0.00002   0.00110   0.00001  -0.00012
 236        4PZ        -0.00002  -0.00002  -0.00174   0.00000   0.00013
 237 19  H  1S          0.00002   0.00005   0.00015   0.00001  -0.00007
 238        2S         -0.00023  -0.00044  -0.00296  -0.00006   0.00093
 239        3S          0.00016   0.00203   0.00219   0.00078   0.00071
 240        4PX        -0.00001   0.00000  -0.00059   0.00000   0.00007
 241        4PY         0.00003   0.00002   0.00109   0.00001  -0.00016
 242        4PZ         0.00003   0.00005   0.00166  -0.00001  -0.00014
 243 20  Cl 1S          0.00000   0.00000   0.00000   0.00000  -0.12180
 244        2S          0.00000   0.00000   0.00000   0.00000  -0.32695
 245        3S          0.00001   0.00004   0.00003   0.00001   0.49748
 246        4S         -0.00002  -0.00009  -0.00008  -0.00002   0.61085
 247        5S          0.00007   0.00026   0.00025   0.00005   0.05817
 248        6S         -0.00023  -0.00057  -0.00048  -0.00015  -0.02299
 249        7S          0.00132  -0.00003   0.00117   0.00077   0.01681
 250        7PX        -0.00036  -0.00020  -0.00026  -0.00035  -0.00752
 251        7PY        -0.00009  -0.00017   0.00055  -0.00023   0.00184
 252        7PZ        -0.00021  -0.00003   0.00006  -0.00022  -0.00155
 253        8PX         0.00001   0.00002   0.00001   0.00000  -0.00085
 254        8PY         0.00000  -0.00001   0.00000   0.00000   0.00037
 255        8PZ         0.00000   0.00000   0.00001   0.00000  -0.00014
 256        9PX         0.00000   0.00001   0.00001   0.00000   0.00028
 257        9PY         0.00000   0.00000   0.00000   0.00000  -0.00012
 258        9PZ         0.00000   0.00000   0.00000   0.00000   0.00004
 259       10PX        -0.00003  -0.00005  -0.00005  -0.00002  -0.00001
 260       10PY         0.00002   0.00003   0.00000   0.00001  -0.00003
 261       10PZ        -0.00001   0.00001  -0.00003   0.00000   0.00002
 262       11PX         0.00006   0.00010   0.00009   0.00003  -0.00055
 263       11PY        -0.00005  -0.00007   0.00002  -0.00002   0.00026
 264       11PZ         0.00001  -0.00002   0.00007   0.00001  -0.00015
 265       12PX        -0.00001   0.00037   0.00010  -0.00002   0.00375
 266       12PY         0.00016   0.00004  -0.00057   0.00009  -0.00105
 267       12PZ         0.00005   0.00013  -0.00023   0.00003   0.00094
 268       13D 0        0.00000   0.00002   0.00003   0.00000   0.00006
 269       13D+1        0.00000  -0.00001   0.00001   0.00000  -0.00008
 270       13D-1        0.00000   0.00000   0.00000   0.00000  -0.00002
 271       13D+2        0.00000  -0.00002   0.00001  -0.00001  -0.00009
 272       13D-2       -0.00001   0.00001   0.00006   0.00000   0.00002
                          11        12        13        14        15
                           O         O         O         O         O
     Eigenvalues --    -7.05093  -7.05079  -7.05047  -1.11132  -0.99493
   1 1   C  1S          0.00000   0.00000   0.00000  -0.03546   0.01940
   2        2S          0.00000   0.00000   0.00000  -0.05426   0.02976
   3        2PX         0.00000   0.00000   0.00000  -0.00705   0.03070
   4        2PY         0.00000   0.00000   0.00000   0.03463  -0.01488
   5        2PZ         0.00000   0.00000   0.00000   0.00834  -0.00273
   6        3S          0.00000  -0.00001   0.00000   0.13599  -0.07569
   7        3PX        -0.00003   0.00000   0.00000  -0.01153   0.04818
   8        3PY        -0.00001   0.00000   0.00000   0.05136  -0.02555
   9        3PZ         0.00000   0.00000   0.00000   0.01237  -0.00490
  10        4S         -0.00024   0.00013   0.00001   0.05145  -0.05970
  11        4PX        -0.00002   0.00004  -0.00001  -0.00266  -0.00068
  12        4PY        -0.00012   0.00005   0.00001   0.00524  -0.00848
  13        4PZ        -0.00002   0.00001   0.00000   0.00103  -0.00149
  14        5S         -0.00215   0.00040  -0.00005   0.09944  -0.31515
  15        5PX        -0.00022  -0.00004  -0.00004   0.00953  -0.03259
  16        5PY        -0.00035   0.00012   0.00000   0.01357  -0.05393
  17        5PZ        -0.00003   0.00002   0.00001   0.00785  -0.01753
  18        6D 0        0.00000   0.00000   0.00000  -0.00959   0.00436
  19        6D+1        0.00000   0.00000   0.00000  -0.00081   0.00325
  20        6D-1        0.00000   0.00000   0.00000   0.00546  -0.00191
  21        6D+2       -0.00001   0.00000   0.00000  -0.00501   0.00174
  22        6D-2        0.00000   0.00000   0.00000  -0.00504   0.01380
  23 2   C  1S          0.00000   0.00000   0.00000  -0.03223  -0.02629
  24        2S          0.00000   0.00000   0.00000  -0.04929  -0.04034
  25        2PX         0.00000   0.00001   0.00000  -0.02208   0.00149
  26        2PY         0.00000   0.00000   0.00000   0.02539   0.03522
  27        2PZ         0.00000   0.00000   0.00000   0.00552   0.00882
  28        3S         -0.00001  -0.00001   0.00000   0.12340   0.10271
  29        3PX        -0.00005  -0.00004   0.00000  -0.03265   0.00221
  30        3PY         0.00002   0.00001   0.00000   0.03805   0.05635
  31        3PZ         0.00001   0.00000  -0.00001   0.00836   0.01397
  32        4S          0.00007  -0.00010  -0.00001   0.04650   0.06805
  33        4PX        -0.00025   0.00014   0.00002  -0.00580  -0.01134
  34        4PY         0.00006  -0.00003  -0.00002   0.00090   0.00590
  35        4PZ        -0.00001   0.00000   0.00001  -0.00033   0.00080
  36        5S          0.00191  -0.00065   0.00005  -0.09322   0.30973
  37        5PX        -0.00093   0.00029  -0.00001   0.03474  -0.07893
  38        5PY        -0.00002  -0.00024  -0.00001   0.00419   0.01222
  39        5PZ        -0.00013  -0.00003  -0.00005   0.00053   0.00218
  40        6D 0        0.00001   0.00001   0.00000  -0.00907  -0.00547
  41        6D+1        0.00001   0.00000   0.00000  -0.00089  -0.00122
  42        6D-1        0.00000   0.00000   0.00000   0.00449   0.00579
  43        6D+2       -0.00001  -0.00001   0.00000  -0.00236  -0.01325
  44        6D-2        0.00004   0.00001   0.00000  -0.00572  -0.00451
  45 3   C  1S          0.00000   0.00000   0.00000  -0.05762  -0.00604
  46        2S          0.00000   0.00000   0.00000  -0.08820  -0.00929
  47        2PX         0.00000   0.00000   0.00000   0.01590   0.06732
  48        2PY         0.00000   0.00000   0.00000  -0.04485   0.02092
  49        2PZ         0.00000   0.00000   0.00000  -0.01058   0.00738
  50        3S          0.00000   0.00000   0.00000   0.22737   0.02435
  51        3PX         0.00000   0.00000   0.00000   0.02280   0.09675
  52        3PY         0.00000   0.00000   0.00000  -0.06535   0.03083
  53        3PZ         0.00000   0.00000   0.00000  -0.01541   0.01064
  54        4S          0.00011   0.00000  -0.00002   0.06809   0.00609
  55        4PX         0.00001  -0.00001   0.00001  -0.00580   0.00748
  56        4PY        -0.00001  -0.00001   0.00001   0.01135   0.00540
  57        4PZ        -0.00001   0.00000   0.00000   0.00251   0.00232
  58        5S         -0.00003   0.00020   0.00000   0.09041   0.00144
  59        5PX        -0.00012  -0.00009   0.00008   0.02437   0.02583
  60        5PY        -0.00006  -0.00012   0.00005  -0.01795   0.01039
  61        5PZ         0.00000  -0.00002   0.00002  -0.00345   0.00267
  62        6D 0        0.00000   0.00000   0.00000  -0.01466  -0.00233
  63        6D+1        0.00000   0.00000   0.00000   0.00066  -0.00344
  64        6D-1        0.00000   0.00000   0.00000   0.00710  -0.00351
  65        6D+2        0.00000   0.00000   0.00000  -0.00143   0.01506
  66        6D-2        0.00000   0.00000   0.00000  -0.00083  -0.01658
  67 4   N  1S          0.00000   0.00000   0.00000  -0.07294   0.07364
  68        2S          0.00000   0.00000   0.00000  -0.11444   0.11609
  69        2PX         0.00000   0.00000   0.00000   0.03009   0.01261
  70        2PY         0.00000   0.00000   0.00000   0.01042   0.00350
  71        2PZ         0.00000   0.00000   0.00000   0.00477  -0.00079
  72        3S         -0.00001   0.00000   0.00000   0.31241  -0.32355
  73        3PX         0.00000   0.00000   0.00000   0.04279   0.02061
  74        3PY         0.00000   0.00000   0.00000   0.01482   0.00688
  75        3PZ         0.00000   0.00000   0.00000   0.00691  -0.00077
  76        4S          0.00007  -0.00003   0.00000   0.21404  -0.23179
  77        4PX         0.00002   0.00000   0.00001   0.01810   0.02951
  78        4PY        -0.00004   0.00000   0.00001   0.00854   0.00214
  79        4PZ        -0.00001   0.00000   0.00000   0.00452  -0.00049
  80        5S          0.00025  -0.00023   0.00004  -0.09879   0.16774
  81        5PX        -0.00011  -0.00002  -0.00001   0.00501   0.08595
  82        5PY        -0.00011  -0.00004   0.00003   0.00246   0.00615
  83        5PZ        -0.00003  -0.00003   0.00001  -0.00220   0.00631
  84        6D 0        0.00000   0.00000   0.00000  -0.00955   0.00645
  85        6D+1        0.00000   0.00000   0.00000   0.00109   0.00048
  86        6D-1        0.00000   0.00000   0.00000   0.00375  -0.00258
[...]
    18. BD (   1) C  10 - H  15          1.98791    -0.55427  265(v)
    19. BD (   1) C  16 - H  17          1.98632    -0.52485  260(v),231(r),232(r)
    20. BD (   1) C  16 - H  18          1.98274    -0.54118  261(v),257(v),124(v)
    21. BD (   1) C  16 - H  19          1.98682    -0.54676  257(v),261(v)
    22. CR (   1) C   1                  1.99917   -10.11916  57(v),262(v),256(v),258(v)
                                                    252(g),108(v),93(v)
    23. CR (   1) C   2                  1.99916   -10.10056  263(v),113(v),40(v),260(v)
                                                    255(v),252(g),125(v)
    24. CR (   1) C   3                  1.99921   -10.17462  262(v),263(v),254(v),257(v)
                                                    125(v),118(v)
    25. CR (   1) N   4                  1.99929   -14.27256  42(v),77(v),142(v),78(v)
    26. CR (   1) N   8                  1.99928   -14.26271  77(v),58(v),201(v)
    27. CR (   1) C   9                  1.99929   -10.14756  160(v),254(v),258(v)
    28. CR (   1) C  10                  1.99935   -10.08130  143(v)
    29. CR (   1) C  16                  1.99930   -10.09008  216(v),260(v),257(v),263(g)
    35. LP (   1) N   4                  1.50710    -0.33051  261(v),253(v),264(v),41(v)
                                                    76(v),265(v),141(v)
    40. RY*(   1) C   1                  0.00412     1.48662   
    41. RY*(   2) C   1                  0.00225     0.74968   
    42. RY*(   3) C   1                  0.00162     0.99303   
    43. RY*(   4) C   1                  0.00066     1.34303   
    44. RY*(   5) C   1                  0.00051     1.15663   
    45. RY*(   6) C   1                  0.00035     0.86701   
    46. RY*(   7) C   1                  0.00031     1.24783   
    47. RY*(   8) C   1                  0.00014     1.22448   
    48. RY*(   9) C   1                  0.00011     1.18973   
    49. RY*(  10) C   1                  0.00008     1.85286   
    50. RY*(  11) C   1                  0.00005     2.87674   
    51. RY*(  12) C   1                  0.00004     2.02031   
    52. RY*(  13) C   1                  0.00003     1.42116   
    53. RY*(  14) C   1                  0.00002     1.98884   
    54. RY*(  15) C   1                  0.00000    21.10089   
    55. RY*(  16) C   1                  0.00000     2.67002   
    56. RY*(  17) C   1                  0.00001     2.30179   
    57. RY*(   1) C   2                  0.00521     1.15588   
    58. RY*(   2) C   2                  0.00335     0.97201   
    59. RY*(   3) C   2                  0.00224     0.52254   
    60. RY*(   4) C   2                  0.00122     0.71100   
    61. RY*(   5) C   2                  0.00085     1.19516   
    62. RY*(   6) C   2                  0.00037     2.06008   
    63. RY*(   7) C   2                  0.00028     0.63184   
    64. RY*(   8) C   2                  0.00024     0.94469   
    65. RY*(   9) C   2                  0.00012     3.15010   
    66. RY*(  10) C   2                  0.00011     1.49717   
    67. RY*(  11) C   2                  0.00007     1.54234   
    68. RY*(  12) C   2                  0.00004     1.50674   
    69. RY*(  13) C   2                  0.00005     1.48360   
    70. RY*(  14) C   2                  0.00000    22.28705   
    71. RY*(  15) C   2                  0.00000     2.69587   
    72. RY*(  16) C   2                  0.00001     2.55702   
    73. RY*(  17) C   2                  0.00001     2.06033   
    74. RY*(   1) C   3                  0.00469     1.23738   
    75. RY*(   2) C   3                  0.00417     0.77429   
    76. RY*(   3) C   3                  0.00244     1.32929   
    77. RY*(   4) C   3                  0.00201     1.13206   
    78. RY*(   5) C   3                  0.00140     0.61842   
    79. RY*(   6) C   3                  0.00065     0.53708   
    80. RY*(   7) C   3                  0.00038     1.45372   
    81. RY*(   8) C   3                  0.00023     0.59601   
    82. RY*(   9) C   3                  0.00017     1.90799   
    83. RY*(  10) C   3                  0.00016     2.52244   
    84. RY*(  11) C   3                  0.00009     2.69693   
    85. RY*(  12) C   3                  0.00006     1.78277   
    86. RY*(  13) C   3                  0.00004     1.79532   
    87. RY*(  14) C   3                  0.00004     2.44449   
    88. RY*(  15) C   3                  0.00000    19.99511   
    89. RY*(  16) C   3                  0.00000     2.72189   
    90. RY*(  17) C   3                  0.00001     2.07273   
    91. RY*(   1) N   4                  0.00435     0.83865   
    92. RY*(   2) N   4                  0.00261     1.60945   
    93. RY*(   3) N   4                  0.00145     1.33032   
    94. RY*(   4) N   4                  0.00092     1.08813   
    95. RY*(   5) N   4                  0.00081     1.93986   
    96. RY*(   6) N   4                  0.00038     1.69167   
    97. RY*(   7) N   4                  0.00034     1.81670   
    98. RY*(   8) N   4                  0.00017     1.15721   
    99. RY*(   9) N   4                  0.00010     1.70529   
   100. RY*(  10) N   4                  0.00008     2.47526   
   101. RY*(  11) N   4                  0.00004     2.97784   
   102. RY*(  12) N   4                  0.00002     3.95173   
   103. RY*(  13) N   4                  0.00001     3.14556   
   104. RY*(  14) N   4                  0.00000     3.67076   
   105. RY*(  15) N   4                  0.00001     2.22907   
   106. RY*(  16) N   4                  0.00001     0.76141   
   107. RY*(  17) N   4                  0.00000    34.81106   
   108. RY*(   1) H   5                  0.00046     1.17258   
   109. RY*(   2) H   5                  0.00021     1.54814   
   110. RY*(   3) H   5                  0.00019     1.91672   
   111. RY*(   4) H   5                  0.00004     2.50019   
   112. RY*(   5) H   5                  0.00004     1.59648   
   113. RY*(   1) H   6                  0.00296     1.37086   
   114. RY*(   2) H   6                  0.00024     1.63447   
   115. RY*(   3) H   6                  0.00013     2.20444   
   116. RY*(   4) H   6                  0.00008     1.71919   
   117. RY*(   5) H   6                  0.00006     2.05594   
   118. RY*(   1) H   7                  0.00068     1.03122   
   119. RY*(   2) H   7                  0.00027     1.53060   
   120. RY*(   3) H   7                  0.00007     1.93680   
   121. RY*(   4) H   7                  0.00006     2.14141   
   122. RY*(   5) H   7                  0.00004     2.03952   
   123. RY*(   1) N   8                  0.00291     1.71407   
   124. RY*(   2) N   8                  0.00168     0.97890   
   125. RY*(   3) N   8                  0.00137     1.22525   
   126. RY*(   4) N   8                  0.00088     1.55368   
   127. RY*(   5) N   8                  0.00067     1.72916   
   128. RY*(   6) N   8                  0.00044     1.77170   
   129. RY*(   7) N   8                  0.00034     1.91405   
   130. RY*(   8) N   8                  0.00017     1.17230   
   131. RY*(   9) N   8                  0.00012     2.40042   
   132. RY*(  10) N   8                  0.00008     2.16256   
   133. RY*(  11) N   8                  0.00005     1.15898   
   134. RY*(  12) N   8                  0.00004     4.05517   
   135. RY*(  13) N   8                  0.00002     1.58127   
   136. RY*(  14) N   8                  0.00000    34.71366   
   137. RY*(  15) N   8                  0.00000     1.75617   
   138. RY*(  16) N   8                  0.00000     3.62789   
   139. RY*(  17) N   8                  0.00000     3.77107   
   140. RY*(   1) C   9                  0.00433     0.73184   
   141. RY*(   2) C   9                  0.00176     0.94978   
   142. RY*(   3) C   9                  0.00119     0.91095   
   143. RY*(   4) C   9                  0.00071     1.10469   
   144. RY*(   5) C   9                  0.00051     1.09223   
   145. RY*(   6) C   9                  0.00042     1.52950   
   146. RY*(   7) C   9                  0.00027     1.67664   
   147. RY*(   8) C   9                  0.00017     1.72688   
   148. RY*(   9) C   9                  0.00011     1.74356   
   149. RY*(  10) C   9                  0.00005     0.49365   
   150. RY*(  11) C   9                  0.00004     1.37052   
   151. RY*(  12) C   9                  0.00000     2.09544   
   152. RY*(  13) C   9                  0.00001     2.11575   
   153. RY*(  14) C   9                  0.00000     2.35605   
   154. RY*(  15) C   9                  0.00001     1.82239   
   155. RY*(  16) C   9                  0.00000    22.62972   
   156. RY*(  17) C   9                  0.00001     1.70121   
   157. RY*(   1) C  10                  0.00124     0.69643   
   158. RY*(   2) C  10                  0.00098     0.72539   
   159. RY*(   3) C  10                  0.00053     1.18770   
   160. RY*(   4) C  10                  0.00025     0.71520   
   161. RY*(   5) C  10                  0.00011     0.79638   
   162. RY*(   6) C  10                  0.00007     0.53068   
   163. RY*(   7) C  10                  0.00006     1.43185   
   164. RY*(   8) C  10                  0.00001     0.95630   
   165. RY*(   9) C  10                  0.00000     2.72206   
   166. RY*(  10) C  10                  0.00001     3.04386   
   167. RY*(  11) C  10                  0.00000    23.12114   
   168. RY*(  12) C  10                  0.00000     1.82576   
   169. RY*(  13) C  10                  0.00001     1.78956   
   170. RY*(  14) C  10                  0.00000     1.51409   
   171. RY*(  15) C  10                  0.00001     1.89457   
   172. RY*(  16) C  10                  0.00000     1.81190   
   173. RY*(  17) C  10                  0.00001     1.23084   
   174. RY*(   1) H  11                  0.00106     0.68033   
   175. RY*(   2) H  11                  0.00014     1.90362   
   176. RY*(   3) H  11                  0.00010     1.84468   
   177. RY*(   4) H  11                  0.00007     2.23269   
   178. RY*(   5) H  11                  0.00004     2.15518   
   179. RY*(   1) H  12                  0.00093     0.68641   
   180. RY*(   2) H  12                  0.00014     1.87892   
   181. RY*(   3) H  12                  0.00010     1.85133   
   182. RY*(   4) H  12                  0.00006     1.84844   
   183. RY*(   5) H  12                  0.00004     2.47442   
   184. RY*(   1) H  13                  0.00062     0.74950   
   185. RY*(   2) H  13                  0.00013     1.60511   
   186. RY*(   3) H  13                  0.00009     1.75641   
   187. RY*(   4) H  13                  0.00007     2.00049   
   188. RY*(   5) H  13                  0.00002     2.57465   
   189. RY*(   1) H  14                  0.00084     0.67296   
   190. RY*(   2) H  14                  0.00015     1.76634   
   191. RY*(   3) H  14                  0.00011     1.78504   
   192. RY*(   4) H  14                  0.00007     1.87468   
   193. RY*(   5) H  14                  0.00003     2.62291   
   194. RY*(   1) H  15                  0.00110     0.67530   
   195. RY*(   2) H  15                  0.00015     1.74417   
   196. RY*(   3) H  15                  0.00010     1.77150   
   197. RY*(   4) H  15                  0.00006     1.86684   
   198. RY*(   5) H  15                  0.00003     2.65242   
   199. RY*(   1) C  16                  0.00287     0.68857   
   200. RY*(   2) C  16                  0.00180     0.67563   
   201. RY*(   3) C  16                  0.00111     0.69226   
   202. RY*(   4) C  16                  0.00062     0.44630   
   203. RY*(   5) C  16                  0.00032     0.89469   
   204. RY*(   6) C  16                  0.00015     1.30253   
   205. RY*(   7) C  16                  0.00010     1.12867   
   206. RY*(   8) C  16                  0.00006     1.83563   
   207. RY*(   9) C  16                  0.00006     1.05823   
   208. RY*(  10) C  16                  0.00002     2.05474   
   209. RY*(  11) C  16                  0.00000     2.06498   
   210. RY*(  12) C  16                  0.00001     1.78808   
   211. RY*(  13) C  16                  0.00000    22.76619   
   212. RY*(  14) C  16                  0.00000     2.63984   
   213. RY*(  15) C  16                  0.00001     1.82092   
   214. RY*(  16) C  16                  0.00000     2.92401   
   215. RY*(  17) C  16                  0.00000     1.55238   
   216. RY*(   1) H  17                  0.00262     1.15678   
   217. RY*(   2) H  17                  0.00015     1.72357   
   218. RY*(   3) H  17                  0.00011     1.92610   
   219. RY*(   4) H  17                  0.00007     1.78192   
   220. RY*(   5) H  17                  0.00004     2.37514   
   221. RY*(   1) H  18                  0.00055     0.94718   
   222. RY*(   2) H  18                  0.00017     1.78513   
   223. RY*(   3) H  18                  0.00011     1.74968   
   224. RY*(   4) H  18                  0.00006     1.80208   
   225. RY*(   5) H  18                  0.00003     2.59477   
   226. RY*(   1) H  19                  0.00069     0.80826   
   227. RY*(   2) H  19                  0.00016     1.81194   
   228. RY*(   3) H  19                  0.00009     1.69573   
   229. RY*(   4) H  19                  0.00005     1.84153   
   230. RY*(   5) H  19                  0.00003     2.61024   
   252. BD*(   1) C   1 - C   2          0.01128     0.55169   
   253. BD*(   2) C   1 - C   2          0.22834    -0.01740  261(v),59(g),44(g)
   254. BD*(   1) C   1 - N   4          0.02423     0.37328   
   255. BD*(   1) C   1 - H   5          0.01020     0.37535   
   256. BD*(   1) C   2 - H   6          0.06614     0.41198   
   257. BD*(   1) C   2 - N   8          0.02186     0.39728   
   258. BD*(   1) C   3 - N   4          0.02041     0.41611   
   259. BD*(   1) C   3 - H   7          0.01218     0.32605   
   260. BD*(   1) C   3 - N   8          0.02198     0.42976   
   261. BD*(   2) C   3 - N   8          0.55765    -0.10617  253(v),75(g),271(v),129(g)
                                                    272(v),59(v)
   262. BD*(   1) N   4 - C   9          0.03120     0.25580   
   263. BD*(   1) N   8 - C  16          0.01621     0.27718   
   264. BD*(   1) C   9 - C  10          0.00979     0.31995   
   265. BD*(   1) C   9 - H  11          0.01601     0.32895   
   266. BD*(   1) C   9 - H  12          0.01243     0.32437   
   267. BD*(   1) C  10 - H  13          0.00408     0.34780   
   268. BD*(   1) C  10 - H  14          0.00675     0.34941   
   269. BD*(   1) C  10 - H  15          0.00692     0.34739   
   270. BD*(   1) C  16 - H  17          0.03757     0.40526   
   271. BD*(   1) C  16 - H  18          0.00811     0.36129   
   272. BD*(   1) C  16 - H  19          0.00599     0.35747   
       -------------------------------
              Total Lewis   58.89849  ( 97.9590%)
        Valence non-Lewis    1.12936  (  1.8783%)
        Rydberg non-Lewis    0.09780  (  0.1627%)
       -------------------------------
            Total unit  1   60.12564  (100.0000%)
           Charge unit  1    0.87436

 Molecular unit  2  (Cl)
    30. CR (   1)Cl  20                  2.00000  -100.83978  256(r)
    31. CR (   2)Cl  20                  1.99998    -9.70771  256(r),270(r)
    32. CR (   3)Cl  20                  2.00000    -7.04993   
    33. CR (   4)Cl  20                  2.00000    -7.04979   
    34. CR (   5)Cl  20                  2.00000    -7.04960   
    36. LP (   1)Cl  20                  1.99888    -0.65960  256(r),270(r)
    37. LP (   2)Cl  20                  1.99119    -0.18893  253(r),256(r),270(r),59(r)
                                                    272(r)
    38. LP (   3)Cl  20                  1.96456    -0.18004  270(r),256(r),217(r),272(r)
    39. LP (   4)Cl  20                  1.91911    -0.26003  256(r),270(r),114(r),252(r)
                                                    217(r),58(r),253(r),272(r)
                                                    113(r)
   231. RY*(   1)Cl  20                  0.00024     0.99445   
   232. RY*(   2)Cl  20                  0.00018     0.79556   
   233. RY*(   3)Cl  20                  0.00008     0.32667   
   234. RY*(   4)Cl  20                  0.00007     0.58803   
   235. RY*(   5)Cl  20                  0.00004     0.39333   
   236. RY*(   6)Cl  20                  0.00000     1.01484   
   237. RY*(   7)Cl  20                  0.00000     5.06543   
   238. RY*(   8)Cl  20                  0.00000    23.31545   
   239. RY*(   9)Cl  20                  0.00000    18.45491   
   240. RY*(  10)Cl  20                  0.00000     0.71805   
   241. RY*(  11)Cl  20                  0.00000     4.85319   
   242. RY*(  12)Cl  20                  0.00000    23.33668   
   243. RY*(  13)Cl  20                  0.00000   206.42442   
   244. RY*(  14)Cl  20                  0.00000     0.66392   
   245. RY*(  15)Cl  20                  0.00000     4.92055   
   246. RY*(  16)Cl  20                  0.00000    23.31109   
   247. RY*(  17)Cl  20                  0.00001     0.63297   
   248. RY*(  18)Cl  20                  0.00000     1.04186   
   249. RY*(  19)Cl  20                  0.00000     1.02235   
   250. RY*(  20)Cl  20                  0.00001     1.02137   
   251. RY*(  21)Cl  20                  0.00000     0.95347   
       -------------------------------
              Total Lewis   17.87372  ( 99.9965%)
        Valence non-Lewis    0.00000  (  0.0000%)
        Rydberg non-Lewis    0.00063  (  0.0035%)
       -------------------------------
            Total unit  2   17.87435  (100.0000%)
           Charge unit  2   -0.87435
 1\1\GINC-CX1-10-12-4\SP\RB3LYP\6-311+G(d,p)\C6H11Cl1N2\CJS14\20-Apr-20
 15\0\\# pop(nbo,full) GFInput b3lyp/6-311+g(d,p) geom=checkpoint integ
 ral=grid=ultrafine scf=conver=9 empiricaldispersion=gd3bj\\Emim+ (opti
 mised with b3lyp+gd3bj / aug-cc-pvtz) and Cl- in the back-methyl posit
 ion created on; Thu Apr 16 19:11:53 BST 2015, from; CJS1_emim-cl_BM_in
 it.com created on; Fri Apr 17 20:54:16 BST 2015, from; CJS1_emim-cl_BM
 _6-311+g-d-p-_gd3bj_opt-modredundant_difrz.com created on; Mon Apr 20 
 15:19:45 BST 2015, from; CJS1_emim-cl_BM_6-311+g-d-p-_gd3bj_opt-modred
 undant_unfrz.com\\0,1\C,0,-0.3351627263,1.6713313318,-0.1042526839\C,0
 ,-1.675800619,1.5543100498,0.116053494\C,0,-0.8463509881,-0.4741770236
 ,-0.2266098897\N,0,0.1672020976,0.3971764423,-0.320050745\H,0,0.298576
 3306,2.5404306427,-0.1214625796\H,0,-2.4836965916,2.2544661103,0.38138
 94237\H,0,-0.7665475883,-1.5408568871,-0.3462107176\N,0,-1.9663895834,
 0.2038108128,0.0348146447\C,0,1.5797522898,0.0512908356,-0.5270364851\
 C,0,2.3892234159,0.1475060881,0.7621955188\H,0,1.9701182811,0.72452244
 64,-1.2922454377\H,0,1.6067880522,-0.959685034,-0.9359654449\H,0,3.429
 711795,-0.1175741982,0.5632908436\H,0,2.3675025134,1.1608058967,1.1673
 161717\H,0,1.997798184,-0.5335549915,1.520567835\C,0,-3.3138436676,-0.
 3737004054,0.1922240417\H,0,-3.9350419168,0.3941863992,0.6747513978\H,
 0,-3.7199415292,-0.6124254994,-0.7909145841\H,0,-3.2446280705,-1.27089
 56828,0.8063100287\Cl,0,-4.4221855587,2.5985485564,1.253071688\\Versio
 n=ES64L-G09RevD.01\State=1-A\HF=-805.1035697\RMSD=8.591e-10\Dipole=5.2
 992264,-3.4711606,-1.8837307\Quadrupole=-6.6122199,3.8711897,2.7410301
 ,15.0167455,6.5154792,-3.70089\PG=C01 [X(C6H11Cl1N2)]\\@


 THE WHOLE OF SCIENCE IS NOTHING MORE THAN A REFINEMENT OF EVERYDAY THINKING.
                                                              -- A. EINSTEIN
 Job cpu time:       0 days  0 hours  6 minutes 18.6 seconds.
 File lengths (MBytes):  RWF=     29 Int=      0 D2E=      0 Chk=      6 Scr=      1
 Normal termination of Gaussian 09 at Mon Apr 20 15:26:25 2015.
