 Entering Gaussian System, Link 0=g09
 Input=/work/cjs14/CJS1_emim-cl_BE_6-311+g-d-p-_gd3bj_opt-modredundant_unfrz.com
 Output=/work/cjs14/CJS1_emim-cl_BE_6-311+g-d-p-_gd3bj_opt-modredundant_unfrz.log
 Initial command:
 /apps/gaussian/g09_d01/g09/l1.exe /tmp/pbs.9401328.cx1b/Gau-4573.inp -scrdir=/tmp/pbs.9401328.cx1b/
 Entering Link 1 = /apps/gaussian/g09_d01/g09/l1.exe PID=      4574.
  
 Copyright (c) 1988,1990,1992,1993,1995,1998,2003,2009,2013,
            Gaussian, Inc.  All Rights Reserved.
  
 This is part of the Gaussian(R) 09 program.  It is based on
 the Gaussian(R) 03 system (copyright 2003, Gaussian, Inc.),
 the Gaussian(R) 98 system (copyright 1998, Gaussian, Inc.),
 the Gaussian(R) 94 system (copyright 1995, Gaussian, Inc.),
 the Gaussian 92(TM) system (copyright 1992, Gaussian, Inc.),
 the Gaussian 90(TM) system (copyright 1990, Gaussian, Inc.),
 the Gaussian 88(TM) system (copyright 1988, Gaussian, Inc.),
 the Gaussian 86(TM) system (copyright 1986, Carnegie Mellon
 University), and the Gaussian 82(TM) system (copyright 1983,
 Carnegie Mellon University). Gaussian is a federally registered
 trademark of Gaussian, Inc.
  
 This software contains proprietary and confidential information,
 including trade secrets, belonging to Gaussian, Inc.
  
 This software is provided under written license and may be
 used, copied, transmitted, or stored only in accord with that
 written license.
  
 The following legend is applicable only to US Government
 contracts under FAR:
  
                    RESTRICTED RIGHTS LEGEND
  
 Use, reproduction and disclosure by the US Government is
 subject to restrictions as set forth in subparagraphs (a)
 and (c) of the Commercial Computer Software - Restricted
 Rights clause in FAR 52.227-19.
  
 Gaussian, Inc.
 340 Quinnipiac St., Bldg. 40, Wallingford CT 06492
  
  
 ---------------------------------------------------------------
 Warning -- This program may not be used in any manner that
 competes with the business of Gaussian, Inc. or will provide
 assistance to any competitor of Gaussian, Inc.  The licensee
 of this program is prohibited from giving any competitor of
 Gaussian, Inc. access to this program.  By using this program,
 the user acknowledges that Gaussian, Inc. is engaged in the
 business of creating and licensing software in the field of
 computational chemistry and represents and warrants to the
 licensee that it is not a competitor of Gaussian, Inc. and that
 it will not use this program in any manner prohibited above.
 ---------------------------------------------------------------
  

 Cite this work as:
 Gaussian 09, Revision D.01,
 M. J. Frisch, G. W. Trucks, H. B. Schlegel, G. E. Scuseria, 
 M. A. Robb, J. R. Cheeseman, G. Scalmani, V. Barone, B. Mennucci, 
 G. A. Petersson, H. Nakatsuji, M. Caricato, X. Li, H. P. Hratchian, 
 A. F. Izmaylov, J. Bloino, G. Zheng, J. L. Sonnenberg, M. Hada, 
 M. Ehara, K. Toyota, R. Fukuda, J. Hasegawa, M. Ishida, T. Nakajima, 
 Y. Honda, O. Kitao, H. Nakai, T. Vreven, J. A. Montgomery, Jr., 
 J. E. Peralta, F. Ogliaro, M. Bearpark, J. J. Heyd, E. Brothers, 
 K. N. Kudin, V. N. Staroverov, T. Keith, R. Kobayashi, J. Normand, 
 K. Raghavachari, A. Rendell, J. C. Burant, S. S. Iyengar, J. Tomasi, 
 M. Cossi, N. Rega, J. M. Millam, M. Klene, J. E. Knox, J. B. Cross, 
 V. Bakken, C. Adamo, J. Jaramillo, R. Gomperts, R. E. Stratmann, 
 O. Yazyev, A. J. Austin, R. Cammi, C. Pomelli, J. W. Ochterski, 
 R. L. Martin, K. Morokuma, V. G. Zakrzewski, G. A. Voth, 
 P. Salvador, J. J. Dannenberg, S. Dapprich, A. D. Daniels, 
 O. Farkas, J. B. Foresman, J. V. Ortiz, J. Cioslowski, 
 and D. J. Fox, Gaussian, Inc., Wallingford CT, 2013.
 
 ******************************************
 Gaussian 09:  ES64L-G09RevD.01 24-Apr-2013
                17-Apr-2015 
 ******************************************
 %nprocshared=8
 Will use up to    8 processors via shared memory.
 %mem=15000MB
 %chk=CJS1_emim-cl_BE_6-311+g-d-p-_gd3bj_opt-modredundant_unfrz.chk
 ----------------------------------------------------------------------
 # opt=modredundant b3lyp/6-311+g(d,p) geom=checkpoint integral=grid=ul
 trafine scf=conver=9 empiricaldispersion=gd3bj
 ----------------------------------------------------------------------
 1/14=-1,18=120,19=15,26=4,29=2,38=1/1,3;
 2/9=110,12=2,40=1/2;
 3/5=4,6=6,7=111,11=2,14=-4,16=1,25=1,30=1,71=1,74=-5,75=-5,124=41/1,2,3;
 4//1;
 5/5=2,6=9,38=5/2;
 6/7=2,8=2,9=2,10=2,28=1/1;
 7//1,2,3,16;
 1/14=-1,18=20,19=15,26=4/3(2);
 2/9=110/2;
 99//99;
 2/9=110/2;
 3/5=4,6=6,7=111,11=2,14=-2,16=1,25=1,30=1,71=1,74=-5,75=-5,124=41/1,2,3;
 4/5=5,16=3,69=1/1;
 5/5=2,6=9,38=5/2;
 7//1,2,3,16;
 1/14=-1,18=20,19=15,26=4/3(-5);
 2/9=110/2;
 6/7=2,8=2,9=2,10=2,19=2,28=1/1;
 99/9=1/99;
 ----------------------------------------------------------------------
 Emim+ (optimised with b3lyp+gd3bj / aug-cc-pvtz) and Cl- in the back-e
 thyl position created on; Thu Apr 16 19:11:51 BST 2015, from; CJS1_emi
 m-cl_BE_init.com created on; Fri Apr 17 20:54:15 BST 2015, from; CJS1_
 emim-cl_BE_6-311+g-d-p-_gd3bj_opt-modredundant_difrz.com
 ----------------------------------------------------------------------
 Structure from the checkpoint file:  "CJS1_emim-cl_BE_6-311+g-d-p-_gd3bj_opt-modredundant_unfrz.chk"
 Charge =  0 Multiplicity = 1
 Redundant internal coordinates found in file.
 C,0,-0.3493104712,1.7468547841,-0.4745885819
 C,0,-1.6768765712,1.641957152,-0.1771289135
 C,0,-0.7904890181,-0.3782003392,-0.0155611608
 N,0,0.1722169492,0.4727398953,-0.370680902
 H,0,0.3356274179,2.5830914707,-0.6454676827
 H,0,-2.4479883723,2.3905384205,-0.1279392645
 H,0,-0.6754593812,-1.4367739195,0.138292863
 N,0,-1.936332829,0.3088304797,0.10597624
 C,0,1.5946253735,0.0897970795,-0.568438698
 C,0,2.2705969659,-0.2228056736,0.7581763884
 H,0,2.0772302784,0.9607358601,-1.0165221851
 H,0,1.6007662691,-0.758841564,-1.2563052501
 H,0,3.3062033276,-0.5102632803,0.5661085184
 H,0,2.2867342063,0.6793800901,1.3712083886
 H,0,1.7795309542,-1.0419048443,1.2935756955
 C,0,-3.2336521554,-0.2473341025,0.4790062495
 H,0,-3.5880525188,0.2271770893,1.3942752056
 H,0,-3.9523624984,-0.0805695094,-0.3236699478
 H,0,-3.1274437943,-1.3172506588,0.6487637028
 Cl,0,2.4509453978,3.1879645404,-0.1343817256
 Recover connectivity data from disk.
 The following ModRedundant input section has been read:
 D      20       3       4       1 A                                           
 

 GradGradGradGradGradGradGradGradGradGradGradGradGradGradGradGradGradGrad
 Berny optimization.
 Initialization pass.
                           ----------------------------
                           !    Initial Parameters    !
                           ! (Angstroms and Degrees)  !
 --------------------------                            --------------------------
 ! Name  Definition              Value          Derivative Info.                !
 --------------------------------------------------------------------------------
 ! R1    R(1,2)                  1.3645         estimate D2E/DX2                !
 ! R2    R(1,4)                  1.3806         estimate D2E/DX2                !
 ! R3    R(1,5)                  1.0944         estimate D2E/DX2                !
 ! R4    R(2,6)                  1.0758         estimate D2E/DX2                !
 ! R5    R(2,8)                  1.3873         estimate D2E/DX2                !
 ! R6    R(3,4)                  1.333          estimate D2E/DX2                !
 ! R7    R(3,7)                  1.0759         estimate D2E/DX2                !
 ! R8    R(3,8)                  1.3415         estimate D2E/DX2                !
 ! R9    R(4,9)                  1.4863         estimate D2E/DX2                !
 ! R10   R(8,16)                 1.46           estimate D2E/DX2                !
 ! R11   R(9,10)                 1.5214         estimate D2E/DX2                !
 ! R12   R(9,11)                 1.0919         estimate D2E/DX2                !
 ! R13   R(9,12)                 1.0924         estimate D2E/DX2                !
 ! R14   R(10,13)                1.0918         estimate D2E/DX2                !
 ! R15   R(10,14)                1.0909         estimate D2E/DX2                !
 ! R16   R(10,15)                1.0949         estimate D2E/DX2                !
 ! R17   R(11,20)                2.4245         estimate D2E/DX2                !
 ! R18   R(14,20)                2.9303         estimate D2E/DX2                !
 ! R19   R(16,17)                1.0902         estimate D2E/DX2                !
 ! R20   R(16,18)                1.0902         estimate D2E/DX2                !
 ! R21   R(16,19)                1.0885         estimate D2E/DX2                !
 ! A1    A(2,1,4)              106.27           estimate D2E/DX2                !
 ! A2    A(2,1,5)              134.5643         estimate D2E/DX2                !
 ! A3    A(4,1,5)              118.7184         estimate D2E/DX2                !
 ! A4    A(1,2,6)              130.8306         estimate D2E/DX2                !
 ! A5    A(1,2,8)              107.4762         estimate D2E/DX2                !
 ! A6    A(6,2,8)              121.6853         estimate D2E/DX2                !
 ! A7    A(4,3,7)              126.0836         estimate D2E/DX2                !
 ! A8    A(4,3,8)              108.3042         estimate D2E/DX2                !
 ! A9    A(7,3,8)              125.6093         estimate D2E/DX2                !
 ! A10   A(1,4,3)              109.654          estimate D2E/DX2                !
 ! A11   A(1,4,9)              126.1055         estimate D2E/DX2                !
 ! A12   A(3,4,9)              124.2032         estimate D2E/DX2                !
 ! A13   A(2,8,3)              108.2936         estimate D2E/DX2                !
 ! A14   A(2,8,16)             125.7593         estimate D2E/DX2                !
 ! A15   A(3,8,16)             125.9464         estimate D2E/DX2                !
 ! A16   A(4,9,10)             111.2319         estimate D2E/DX2                !
 ! A17   A(4,9,11)             105.7885         estimate D2E/DX2                !
 ! A18   A(4,9,12)             106.8171         estimate D2E/DX2                !
 ! A19   A(10,9,11)            108.9869         estimate D2E/DX2                !
 ! A20   A(10,9,12)            112.7646         estimate D2E/DX2                !
 ! A21   A(11,9,12)            111.0239         estimate D2E/DX2                !
 ! A22   A(9,10,13)            108.7932         estimate D2E/DX2                !
 ! A23   A(9,10,14)            109.0664         estimate D2E/DX2                !
 ! A24   A(9,10,15)            112.3862         estimate D2E/DX2                !
 ! A25   A(13,10,14)           107.6125         estimate D2E/DX2                !
 ! A26   A(13,10,15)           108.33           estimate D2E/DX2                !
 ! A27   A(14,10,15)           110.5212         estimate D2E/DX2                !
 ! A28   A(9,11,20)            130.6586         estimate D2E/DX2                !
 ! A29   A(10,14,20)           114.8407         estimate D2E/DX2                !
 ! A30   A(8,16,17)            109.7291         estimate D2E/DX2                !
 ! A31   A(8,16,18)            109.84           estimate D2E/DX2                !
 ! A32   A(8,16,19)            109.1223         estimate D2E/DX2                !
 ! A33   A(17,16,18)           109.7084         estimate D2E/DX2                !
 ! A34   A(17,16,19)           109.1849         estimate D2E/DX2                !
 ! A35   A(18,16,19)           109.2379         estimate D2E/DX2                !
 ! A36   A(11,20,14)            52.547          estimate D2E/DX2                !
 ! D1    D(4,1,2,6)            179.1655         estimate D2E/DX2                !
 ! D2    D(4,1,2,8)              0.1948         estimate D2E/DX2                !
 ! D3    D(5,1,2,6)              7.2714         estimate D2E/DX2                !
 ! D4    D(5,1,2,8)           -171.6993         estimate D2E/DX2                !
 ! D5    D(2,1,4,3)             -0.4124         estimate D2E/DX2                !
 ! D6    D(2,1,4,9)           -178.2575         estimate D2E/DX2                !
 ! D7    D(5,1,4,3)            173.0099         estimate D2E/DX2                !
 ! D8    D(5,1,4,9)             -4.8352         estimate D2E/DX2                !
 ! D9    D(1,2,8,3)              0.0841         estimate D2E/DX2                !
 ! D10   D(1,2,8,16)           179.7855         estimate D2E/DX2                !
 ! D11   D(6,2,8,3)           -179.0006         estimate D2E/DX2                !
 ! D12   D(6,2,8,16)             0.7008         estimate D2E/DX2                !
 ! D13   D(7,3,4,1)            179.8832         estimate D2E/DX2                !
 ! D14   D(7,3,4,9)             -2.2219         estimate D2E/DX2                !
 ! D15   D(8,3,4,1)              0.4712         estimate D2E/DX2                !
 ! D16   D(8,3,4,9)            178.3662         estimate D2E/DX2                !
 ! D17   D(20,3,4,1)           -64.7635         estimate D2E/DX2                !
 ! D18   D(4,3,8,2)             -0.3415         estimate D2E/DX2                !
 ! D19   D(4,3,8,16)           179.9578         estimate D2E/DX2                !
 ! D20   D(7,3,8,2)           -179.7569         estimate D2E/DX2                !
 ! D21   D(7,3,8,16)             0.5424         estimate D2E/DX2                !
 ! D22   D(1,4,9,10)           106.1666         estimate D2E/DX2                !
 ! D23   D(1,4,9,11)           -12.0356         estimate D2E/DX2                !
 ! D24   D(1,4,9,12)          -130.3911         estimate D2E/DX2                !
 ! D25   D(3,4,9,10)           -71.3795         estimate D2E/DX2                !
 ! D26   D(3,4,9,11)           170.4183         estimate D2E/DX2                !
 ! D27   D(3,4,9,12)            52.0628         estimate D2E/DX2                !
 ! D28   D(2,8,16,17)          -59.8715         estimate D2E/DX2                !
 ! D29   D(2,8,16,18)           60.81           estimate D2E/DX2                !
 ! D30   D(2,8,16,19)         -179.4649         estimate D2E/DX2                !
 ! D31   D(3,8,16,17)          119.7783         estimate D2E/DX2                !
 ! D32   D(3,8,16,18)         -119.5402         estimate D2E/DX2                !
 ! D33   D(3,8,16,19)            0.1849         estimate D2E/DX2                !
 ! D34   D(4,9,10,13)          179.3053         estimate D2E/DX2                !
 ! D35   D(4,9,10,14)          -63.5793         estimate D2E/DX2                !
 ! D36   D(4,9,10,15)           59.3423         estimate D2E/DX2                !
 ! D37   D(11,9,10,13)         -64.4393         estimate D2E/DX2                !
 ! D38   D(11,9,10,14)          52.6761         estimate D2E/DX2                !
 ! D39   D(11,9,10,15)         175.5977         estimate D2E/DX2                !
 ! D40   D(12,9,10,13)          59.329          estimate D2E/DX2                !
 ! D41   D(12,9,10,14)         176.4444         estimate D2E/DX2                !
 ! D42   D(12,9,10,15)         -60.634          estimate D2E/DX2                !
 ! D43   D(4,9,11,20)           64.4485         estimate D2E/DX2                !
 ! D44   D(10,9,11,20)         -55.24           estimate D2E/DX2                !
 ! D45   D(12,9,11,20)         179.9654         estimate D2E/DX2                !
 ! D46   D(9,10,14,20)         -30.8609         estimate D2E/DX2                !
 ! D47   D(13,10,14,20)         87.0007         estimate D2E/DX2                !
 ! D48   D(15,10,14,20)       -154.8909         estimate D2E/DX2                !
 ! D49   D(9,11,20,14)          29.8642         estimate D2E/DX2                !
 ! D50   D(10,14,20,11)          9.2657         estimate D2E/DX2                !
 --------------------------------------------------------------------------------
 Trust Radius=3.00D-01 FncErr=1.00D-07 GrdErr=1.00D-06
 Number of steps in this run=    117 maximum allowed number of steps=    120.
 GradGradGradGradGradGradGradGradGradGradGradGradGradGradGradGradGradGrad

                          Input orientation:                          
 ---------------------------------------------------------------------
 Center     Atomic      Atomic             Coordinates (Angstroms)
 Number     Number       Type             X           Y           Z
 ---------------------------------------------------------------------
      1          6           0       -0.349310    1.746855   -0.474589
      2          6           0       -1.676877    1.641957   -0.177129
      3          6           0       -0.790489   -0.378200   -0.015561
      4          7           0        0.172217    0.472740   -0.370681
      5          1           0        0.335627    2.583091   -0.645468
      6          1           0       -2.447988    2.390538   -0.127939
      7          1           0       -0.675459   -1.436774    0.138293
      8          7           0       -1.936333    0.308830    0.105976
      9          6           0        1.594625    0.089797   -0.568439
     10          6           0        2.270597   -0.222806    0.758176
     11          1           0        2.077230    0.960736   -1.016522
     12          1           0        1.600766   -0.758842   -1.256305
     13          1           0        3.306203   -0.510263    0.566109
     14          1           0        2.286734    0.679380    1.371208
     15          1           0        1.779531   -1.041905    1.293576
     16          6           0       -3.233652   -0.247334    0.479006
     17          1           0       -3.588053    0.227177    1.394275
     18          1           0       -3.952362   -0.080570   -0.323670
     19          1           0       -3.127444   -1.317251    0.648764
     20         17           0        2.450945    3.187965   -0.134382
 ---------------------------------------------------------------------
                    Distance matrix (angstroms):
                    1          2          3          4          5
     1  C    0.000000
     2  C    1.364521   0.000000
     3  C    2.218379   2.211973   0.000000
     4  N    1.380636   2.196287   1.333046   0.000000
     5  H    1.094363   2.270517   3.230197   2.134431   0.000000
     6  H    2.222373   1.075828   3.228908   3.256125   2.837856
     7  H    3.258449   3.252831   1.075863   2.150315   4.218518
     8  N    2.218921   1.387333   1.341544   2.167960   3.301323
     9  C    2.556078   3.642122   2.492682   1.486270   2.794195
    10  C    3.501883   4.464827   3.161181   2.482197   3.686107
    11  H    2.607638   3.906656   3.319411   2.069862   2.408921
    12  H    3.269923   4.203736   2.720742   2.083717   3.625219
    13  H    4.420454   5.478644   4.139887   3.415515   4.456577
    14  H    3.390457   4.362810   3.537076   2.747374   3.390858
    15  H    3.928810   4.616583   2.959619   2.765386   4.357218
    16  C    3.633945   2.534460   2.496151   3.583353   4.692069
    17  H    4.036276   2.850177   3.190687   4.161129   5.010604
    18  H    4.042801   2.857693   3.190762   4.161793   5.058211
    19  H    4.285871   3.397522   2.604707   3.889871   5.374064
    20  Cl   3.167644   4.408047   4.820638   3.552589   2.258683
                    6          7          8          9         10
     6  H    0.000000
     7  H    4.226235   0.000000
     8  N    2.156390   2.153597   0.000000
     9  C    4.672277   2.825451   3.601455   0.000000
    10  C    5.466243   3.246109   4.290252   1.521370   0.000000
    11  H    4.828200   3.828701   4.218255   1.091889   2.141895
    12  H    5.252068   2.754215   3.937868   1.092422   2.189553
    13  H    6.481287   4.110363   5.326051   2.139338   1.091789
    14  H    5.252914   3.843537   4.424072   2.142161   1.090875
    15  H    5.627992   2.741820   4.128259   2.186787   1.094861
    16  C    2.818514   2.841690   1.459968   4.952077   5.511379
    17  H    2.880454   3.581818   2.096320   5.543579   5.910235
    18  H    2.899625   3.576422   2.097762   5.554999   6.317899
    19  H    3.848718   2.507408   2.087463   5.075362   5.508959
    20  Cl   4.963414   5.589004   5.253132   3.243506   3.530232
                   11         12         13         14         15
    11  H    0.000000
    12  H    1.800406   0.000000
    13  H    2.485746   2.508286   0.000000
    14  H    2.413361   3.072924   1.761464   0.000000
    15  H    3.071766   2.571765   1.772732   1.796136   0.000000
    16  C    5.648142   5.161836   6.545718   5.668288   5.140707
    17  H    6.200442   5.909454   6.982868   5.892210   5.516490
    18  H    6.157950   5.671605   7.325512   6.509721   6.032765
    19  H    5.920391   5.128068   6.484588   5.815650   4.956813
    20  Cl   2.424538   4.190322   3.859928   2.930318   4.514605
                   16         17         18         19         20
    16  C    0.000000
    17  H    1.090173   0.000000
    18  H    1.090250   1.782909   0.000000
    19  H    1.088494   1.775727   1.776372   0.000000
    20  Cl   6.670245   6.897286   7.191766   7.213093   0.000000
 Stoichiometry    C6H11ClN2
 Framework group  C1[X(C6H11ClN2)]
 Deg. of freedom    54
 Full point group                 C1      NOp   1
 Largest Abelian subgroup         C1      NOp   1
 Largest concise Abelian subgroup C1      NOp   1
                         Standard orientation:                         
 ---------------------------------------------------------------------
 Center     Atomic      Atomic             Coordinates (Angstroms)
 Number     Number       Type             X           Y           Z
 ---------------------------------------------------------------------
      1          6           0        0.142915   -0.958544   -0.335544
      2          6           0        1.408350   -1.378437   -0.045233
      3          6           0        1.445056    0.829749   -0.169287
      4          7           0        0.200281    0.418807   -0.411513
      5          1           0       -0.833948   -1.448249   -0.395190
      6          1           0        1.802735   -2.366924    0.112120
      7          1           0        1.785514    1.850304   -0.163104
      8          7           0        2.209247   -0.249993    0.054122
      9          6           0       -0.944843    1.330111   -0.670767
     10          6           0       -1.363635    2.062585    0.595196
     11          1           0       -1.766006    0.689499   -0.998683
     12          1           0       -0.634435    2.008639   -1.468660
     13          1           0       -2.196206    2.727707    0.357623
     14          1           0       -1.720186    1.335543    1.326147
     15          1           0       -0.551804    2.664181    1.016779
     16          6           0        3.637406   -0.241368    0.357099
     17          1           0        3.809661   -0.698887    1.331513
     18          1           0        4.181658   -0.793279   -0.409600
     19          1           0        3.991370    0.787763    0.377544
     20         17           0       -2.981561   -1.047211    0.178027
 ---------------------------------------------------------------------
 Rotational constants (GHZ):      2.3560354      0.7093089      0.5759763
 Standard basis: 6-311+G(d,p) (5D, 7F)
 There are   281 symmetry adapted cartesian basis functions of A   symmetry.
 There are   272 symmetry adapted basis functions of A   symmetry.
   272 basis functions,   429 primitive gaussians,   281 cartesian basis functions
    39 alpha electrons       39 beta electrons
       nuclear repulsion energy       515.8688974903 Hartrees.
 NAtoms=   20 NActive=   20 NUniq=   20 SFac= 1.00D+00 NAtFMM=   60 NAOKFM=F Big=F
 Integral buffers will be    131072 words long.
 Raffenetti 2 integral format.
 Two-electron integral symmetry is turned on.
 Nuclear repulsion after empirical dispersion term =      515.8362380544 Hartrees.
 One-electron integrals computed using PRISM.
 NBasis=   272 RedAO= T EigKep=  1.49D-05  NBF=   272
 NBsUse=   272 1.00D-06 EigRej= -1.00D+00 NBFU=   272
 ExpMin= 4.38D-02 ExpMax= 1.06D+05 ExpMxC= 3.62D+03 IAcc=3 IRadAn=         5 AccDes= 0.00D+00
 Harris functional with IExCor=  402 and IRadAn=       5 diagonalized for initial guess.
 HarFok:  IExCor=  402 AccDes= 0.00D+00 IRadAn=         5 IDoV= 1 UseB2=F ITyADJ=14
 ICtDFT=  3500011 ScaDFX=  1.000000  1.000000  1.000000  1.000000
 FoFCou: FMM=F IPFlag=           0 FMFlag=      100000 FMFlg1=           0
         NFxFlg=           0 DoJE=T BraDBF=F KetDBF=T FulRan=T
         wScrn=  0.000000 ICntrl=     500 IOpCl=  0 I1Cent=   200000004 NGrid=           0
         NMat0=    1 NMatS0=      1 NMatT0=    0 NMatD0=    1 NMtDS0=    0 NMtDT0=    0
 Petite list used in FoFCou.
 Keep R1 ints in memory in canonical form, NReq=700735283.
 Requested convergence on RMS density matrix=1.00D-09 within 128 cycles.
 Requested convergence on MAX density matrix=1.00D-07.
 Requested convergence on             energy=1.00D-07.
 No special actions if energy rises.
 SCF Done:  E(RB3LYP) =  -805.103907769     A.U. after   17 cycles
            NFock= 17  Conv=0.39D-09     -V/T= 2.0033

 **********************************************************************

            Population analysis using the SCF density.

 **********************************************************************

 Orbital symmetries:
       Occupied  (A) (A) (A) (A) (A) (A) (A) (A) (A) (A) (A) (A)
                 (A) (A) (A) (A) (A) (A) (A) (A) (A) (A) (A) (A)
                 (A) (A) (A) (A) (A) (A) (A) (A) (A) (A) (A) (A)
                 (A) (A) (A)
       Virtual   (A) (A) (A) (A) (A) (A) (A) (A) (A) (A) (A) (A)
                 (A) (A) (A) (A) (A) (A) (A) (A) (A) (A) (A) (A)
                 (A) (A) (A) (A) (A) (A) (A) (A) (A) (A) (A) (A)
                 (A) (A) (A) (A) (A) (A) (A) (A) (A) (A) (A) (A)
                 (A) (A) (A) (A) (A) (A) (A) (A) (A) (A) (A) (A)
                 (A) (A) (A) (A) (A) (A) (A) (A) (A) (A) (A) (A)
                 (A) (A) (A) (A) (A) (A) (A) (A) (A) (A) (A) (A)
                 (A) (A) (A) (A) (A) (A) (A) (A) (A) (A) (A) (A)
                 (A) (A) (A) (A) (A) (A) (A) (A) (A) (A) (A) (A)
                 (A) (A) (A) (A) (A) (A) (A) (A) (A) (A) (A) (A)
                 (A) (A) (A) (A) (A) (A) (A) (A) (A) (A) (A) (A)
                 (A) (A) (A) (A) (A) (A) (A) (A) (A) (A) (A) (A)
                 (A) (A) (A) (A) (A) (A) (A) (A) (A) (A) (A) (A)
                 (A) (A) (A) (A) (A) (A) (A) (A) (A) (A) (A) (A)
                 (A) (A) (A) (A) (A) (A) (A) (A) (A) (A) (A) (A)
                 (A) (A) (A) (A) (A) (A) (A) (A) (A) (A) (A) (A)
                 (A) (A) (A) (A) (A) (A) (A) (A) (A) (A) (A) (A)
                 (A) (A) (A) (A) (A) (A) (A) (A) (A) (A) (A) (A)
                 (A) (A) (A) (A) (A) (A) (A) (A) (A) (A) (A) (A)
                 (A) (A) (A) (A) (A)
 The electronic state is 1-A.
 Alpha  occ. eigenvalues -- -101.37789 -14.45251 -14.43385 -10.30997 -10.27895
 Alpha  occ. eigenvalues --  -10.25694 -10.24334 -10.22832 -10.17147  -9.29174
 Alpha  occ. eigenvalues --   -7.05014  -7.04991  -7.04976  -1.11224  -0.99465
 Alpha  occ. eigenvalues --   -0.84228  -0.81007  -0.77039  -0.68671  -0.67434
 Alpha  occ. eigenvalues --   -0.64471  -0.63528  -0.59138  -0.54807  -0.52306
 Alpha  occ. eigenvalues --   -0.51889  -0.49630  -0.48774  -0.48234  -0.45883
 Alpha  occ. eigenvalues --   -0.45508  -0.41474  -0.38939  -0.37050  -0.34239
 Alpha  occ. eigenvalues --   -0.30185  -0.18327  -0.18122  -0.18003
 Alpha virt. eigenvalues --   -0.06967  -0.03878  -0.02188  -0.01455  -0.00182
 Alpha virt. eigenvalues --    0.00906   0.01041   0.01515   0.02978   0.03657
 Alpha virt. eigenvalues --    0.04569   0.05995   0.06311   0.06768   0.07269
 Alpha virt. eigenvalues --    0.08250   0.09059   0.09398   0.09754   0.09978
 Alpha virt. eigenvalues --    0.11464   0.11986   0.12831   0.13258   0.14046
 Alpha virt. eigenvalues --    0.14807   0.15009   0.15233   0.15496   0.16336
 Alpha virt. eigenvalues --    0.16518   0.17034   0.17768   0.18276   0.18461
 Alpha virt. eigenvalues --    0.19088   0.19395   0.19736   0.21183   0.21804
 Alpha virt. eigenvalues --    0.21938   0.23179   0.23460   0.23679   0.24925
 Alpha virt. eigenvalues --    0.25423   0.26229   0.27116   0.28069   0.28905
 Alpha virt. eigenvalues --    0.29275   0.30330   0.35193   0.35721   0.37044
 Alpha virt. eigenvalues --    0.38225   0.39137   0.40002   0.41774   0.43260
 Alpha virt. eigenvalues --    0.44259   0.46404   0.47973   0.49457   0.52101
 Alpha virt. eigenvalues --    0.53241   0.53356   0.54599   0.55053   0.56433
 Alpha virt. eigenvalues --    0.57014   0.57684   0.58734   0.59880   0.60751
 Alpha virt. eigenvalues --    0.62104   0.63045   0.64031   0.65572   0.66542
 Alpha virt. eigenvalues --    0.67036   0.67771   0.68328   0.69881   0.70299
 Alpha virt. eigenvalues --    0.72992   0.74572   0.75760   0.77618   0.78365
 Alpha virt. eigenvalues --    0.81514   0.83366   0.85630   0.89124   0.90624
 Alpha virt. eigenvalues --    0.91478   0.93146   0.95086   0.98391   0.99680
 Alpha virt. eigenvalues --    1.01645   1.02798   1.03509   1.04809   1.06338
 Alpha virt. eigenvalues --    1.08119   1.09304   1.09524   1.10465   1.11504
 Alpha virt. eigenvalues --    1.16707   1.22560   1.25924   1.27696   1.29930
 Alpha virt. eigenvalues --    1.31243   1.34861   1.36217   1.38812   1.41088
 Alpha virt. eigenvalues --    1.44791   1.46233   1.47852   1.49083   1.51349
 Alpha virt. eigenvalues --    1.53782   1.54709   1.55696   1.56823   1.57624
 Alpha virt. eigenvalues --    1.58749   1.58983   1.60029   1.62364   1.64429
 Alpha virt. eigenvalues --    1.66818   1.68638   1.70800   1.71455   1.74753
 Alpha virt. eigenvalues --    1.75603   1.76703   1.78592   1.81007   1.83300
 Alpha virt. eigenvalues --    1.83967   1.88540   1.93138   1.96575   1.99349
 Alpha virt. eigenvalues --    2.02968   2.04960   2.06210   2.10124   2.10880
 Alpha virt. eigenvalues --    2.13583   2.14895   2.19140   2.23689   2.26312
 Alpha virt. eigenvalues --    2.29355   2.31930   2.34032   2.38330   2.40064
 Alpha virt. eigenvalues --    2.40267   2.41508   2.43722   2.44839   2.45507
 Alpha virt. eigenvalues --    2.46730   2.47309   2.49134   2.51234   2.51689
 Alpha virt. eigenvalues --    2.53530   2.54224   2.57524   2.58144   2.59117
 Alpha virt. eigenvalues --    2.61133   2.63610   2.65630   2.66334   2.69963
 Alpha virt. eigenvalues --    2.70486   2.72513   2.76662   2.77384   2.79440
 Alpha virt. eigenvalues --    2.84988   2.86395   2.87531   2.91517   2.92395
 Alpha virt. eigenvalues --    2.95183   2.95815   3.08021   3.19080   3.26612
 Alpha virt. eigenvalues --    3.35872   3.52405   3.56148   3.59896   3.64045
 Alpha virt. eigenvalues --    3.67849   3.69645   3.77919   3.79431   3.82656
 Alpha virt. eigenvalues --    3.83114   3.86491   3.87110   3.89361   4.06724
 Alpha virt. eigenvalues --    4.20710   4.68295   4.88823   4.91674   5.22044
 Alpha virt. eigenvalues --    9.83428  23.70875  23.84704  23.85120  23.86688
 Alpha virt. eigenvalues --   23.96793  24.14122  25.98825  26.04797  26.14488
 Alpha virt. eigenvalues --   35.41694  35.56601 215.81238
          Condensed to atoms (all electrons):
               1          2          3          4          5          6
     1  C    9.410616  -3.496904  -0.243652  -0.590969   0.350151  -0.048118
     2  C   -3.496904   9.038466   0.028372   0.866288  -0.022009   0.460849
     3  C   -0.243652   0.028372   5.270371   0.435760   0.022704   0.010405
     4  N   -0.590969   0.866288   0.435760   7.040527  -0.035118   0.027131
     5  H    0.350151  -0.022009   0.022704  -0.035118   0.413665  -0.001927
     6  H   -0.048118   0.460849   0.010405   0.027131  -0.001927   0.478812
     7  H    0.007033   0.004425   0.435344  -0.030278   0.000128  -0.000040
     8  N    0.797098  -0.425734   0.393649  -0.442262   0.016773  -0.076613
     9  C   -0.251485  -0.180714  -0.216545  -0.230961  -0.046265  -0.001317
    10  C   -0.116521   0.190023   0.027274   0.040305   0.013490   0.000135
    11  H   -0.030478   0.054751   0.027246  -0.040238  -0.001104   0.000052
    12  H    0.021485   0.003489   0.005680   0.008209   0.000494   0.000029
    13  H   -0.001068   0.003935   0.002344   0.025591   0.000071  -0.000001
    14  H    0.009622  -0.000142  -0.011505   0.011560  -0.000070   0.000004
    15  H    0.005329  -0.011993   0.010106  -0.051993  -0.000251   0.000007
    16  C    0.089458  -0.163294  -0.125866  -0.042960   0.000099  -0.008784
    17  H    0.022084  -0.022544  -0.016586  -0.006441  -0.000011  -0.000378
    18  H    0.010267  -0.012103  -0.015823  -0.005701   0.000006  -0.000574
    19  H   -0.004814   0.003316   0.028166   0.011596   0.000005  -0.000031
    20  Cl   0.137390  -0.133560   0.022334   0.058388   0.075441   0.000465
               7          8          9         10         11         12
     1  C    0.007033   0.797098  -0.251485  -0.116521  -0.030478   0.021485
     2  C    0.004425  -0.425734  -0.180714   0.190023   0.054751   0.003489
     3  C    0.435344   0.393649  -0.216545   0.027274   0.027246   0.005680
     4  N   -0.030278  -0.442262  -0.230961   0.040305  -0.040238   0.008209
     5  H    0.000128   0.016773  -0.046265   0.013490  -0.001104   0.000494
     6  H   -0.000040  -0.076613  -0.001317   0.000135   0.000052   0.000029
     7  H    0.474810  -0.053146   0.006025   0.003075   0.000105  -0.000816
     8  N   -0.053146   6.808989  -0.185045   0.007465  -0.001933   0.005376
     9  C    0.006025  -0.185045   7.644753  -0.599700   0.305702   0.265658
    10  C    0.003075   0.007465  -0.599700   5.633640   0.004345  -0.002119
    11  H    0.000105  -0.001933   0.305702   0.004345   0.444741  -0.013497
    12  H   -0.000816   0.005376   0.265658  -0.002119  -0.013497   0.555508
    13  H   -0.000085  -0.000784  -0.090358   0.439080  -0.003540  -0.002737
    14  H   -0.000088   0.001398  -0.063594   0.440871  -0.006552   0.005777
    15  H    0.000410   0.001312   0.077493   0.323009   0.006087  -0.009592
    16  C   -0.009508   0.280614  -0.091410   0.018269   0.001443   0.002469
    17  H   -0.000049  -0.032298  -0.000721   0.000061  -0.000002  -0.000001
    18  H   -0.000010  -0.034519  -0.000545  -0.000307  -0.000004  -0.000007
    19  H    0.001845  -0.049349   0.001895   0.000417   0.000005   0.000006
    20  Cl   0.000031   0.021441  -0.292367   0.040519   0.050318   0.006591
              13         14         15         16         17         18
     1  C   -0.001068   0.009622   0.005329   0.089458   0.022084   0.010267
     2  C    0.003935  -0.000142  -0.011993  -0.163294  -0.022544  -0.012103
     3  C    0.002344  -0.011505   0.010106  -0.125866  -0.016586  -0.015823
     4  N    0.025591   0.011560  -0.051993  -0.042960  -0.006441  -0.005701
     5  H    0.000071  -0.000070  -0.000251   0.000099  -0.000011   0.000006
     6  H   -0.000001   0.000004   0.000007  -0.008784  -0.000378  -0.000574
     7  H   -0.000085  -0.000088   0.000410  -0.009508  -0.000049  -0.000010
     8  N   -0.000784   0.001398   0.001312   0.280614  -0.032298  -0.034519
     9  C   -0.090358  -0.063594   0.077493  -0.091410  -0.000721  -0.000545
    10  C    0.439080   0.440871   0.323009   0.018269   0.000061  -0.000307
    11  H   -0.003540  -0.006552   0.006087   0.001443  -0.000002  -0.000004
    12  H   -0.002737   0.005777  -0.009592   0.002469  -0.000001  -0.000007
    13  H    0.512507  -0.014396  -0.030534  -0.000091   0.000000   0.000000
    14  H   -0.014396   0.436780  -0.031855   0.000377  -0.000004   0.000001
    15  H   -0.030534  -0.031855   0.611653  -0.000323   0.000009   0.000000
    16  C   -0.000091   0.000377  -0.000323   5.018636   0.424316   0.425276
    17  H    0.000000  -0.000004   0.000009   0.424316   0.496804  -0.033942
    18  H    0.000000   0.000001   0.000000   0.425276  -0.033942   0.500375
    19  H    0.000000  -0.000001   0.000006   0.381600  -0.022228  -0.022596
    20  Cl  -0.000413   0.008093  -0.000502   0.002410   0.000022   0.000011
              19         20
     1  C   -0.004814   0.137390
     2  C    0.003316  -0.133560
     3  C    0.028166   0.022334
     4  N    0.011596   0.058388
     5  H    0.000005   0.075441
     6  H   -0.000031   0.000465
     7  H    0.001845   0.000031
     8  N   -0.049349   0.021441
     9  C    0.001895  -0.292367
    10  C    0.000417   0.040519
    11  H    0.000005   0.050318
    12  H    0.000006   0.006591
    13  H    0.000000  -0.000413
    14  H   -0.000001   0.008093
    15  H    0.000006  -0.000502
    16  C    0.381600   0.002410
    17  H   -0.022228   0.000022
    18  H   -0.022596   0.000011
    19  H    0.508760   0.000000
    20  Cl   0.000000  17.759023
 Mulliken charges:
               1
     1  C   -0.076525
     2  C   -0.184918
     3  C   -0.089778
     4  N   -0.048435
     5  H    0.213727
     6  H    0.159893
     7  H    0.160788
     8  N   -0.032434
     9  C   -0.050498
    10  C   -0.463333
    11  H    0.202553
    12  H    0.147996
    13  H    0.160479
    14  H    0.213724
    15  H    0.101622
    16  C   -0.202731
    17  H    0.191910
    18  H    0.190195
    19  H    0.161401
    20  Cl  -0.755637
 Sum of Mulliken charges =   0.00000
 Mulliken charges with hydrogens summed into heavy atoms:
               1
     1  C    0.137202
     2  C   -0.025024
     3  C    0.071010
     4  N   -0.048435
     8  N   -0.032434
     9  C    0.300051
    10  C    0.012492
    16  C    0.340776
    20  Cl  -0.755637
 Electronic spatial extent (au):  <R**2>=           1938.1194
 Charge=              0.0000 electrons
 Dipole moment (field-independent basis, Debye):
    X=             15.2610    Y=              4.6282    Z=             -0.9111  Tot=             15.9734
 Quadrupole moment (field-independent basis, Debye-Ang):
   XX=            -76.3908   YY=            -59.9476   ZZ=            -65.1588
   XY=            -14.5546   XZ=              4.6353   YZ=             -0.4779
 Traceless Quadrupole moment (field-independent basis, Debye-Ang):
   XX=             -9.2250   YY=              7.2181   ZZ=              2.0069
   XY=            -14.5546   XZ=              4.6353   YZ=             -0.4779
 Octapole moment (field-independent basis, Debye-Ang**2):
  XXX=            186.7524  YYY=              9.3113  ZZZ=             -0.1033  XYY=             28.7990
  XXY=             38.9359  XXZ=              0.0360  XZZ=              7.9627  YZZ=              3.8895
  YYZ=             -2.4964  XYZ=             -3.4004
 Hexadecapole moment (field-independent basis, Debye-Ang**3):
 XXXX=          -2005.0379 YYYY=           -597.7941 ZZZZ=           -154.8202 XXXY=           -151.5126
 XXXZ=             43.5172 YYYX=            -43.1131 YYYZ=             -5.8695 ZZZX=              9.1807
 ZZZY=             -4.8947 XXYY=           -429.2135 XXZZ=           -345.5574 YYZZ=           -132.8014
 XXYZ=              3.2716 YYXZ=              7.4346 ZZXY=            -10.2149
 N-N= 5.158362380544D+02 E-N=-2.926157501985D+03  KE= 8.024371620948D+02
 Calling FoFJK, ICntrl=      2127 FMM=F ISym2X=0 I1Cent= 0 IOpClX= 0 NMat=1 NMatS=1 NMatT=0.
 ***** Axes restored to original set *****
 -------------------------------------------------------------------
 Center     Atomic                   Forces (Hartrees/Bohr)
 Number     Number              X              Y              Z
 -------------------------------------------------------------------
      1        6           0.000351359    0.000274145    0.001621175
      2        6          -0.000002796   -0.000009162    0.000003286
      3        6          -0.002824600    0.002714924   -0.001137795
      4        7           0.003657874   -0.004039088    0.000186997
      5        1           0.000006795    0.000003405   -0.000001100
      6        1           0.000000327   -0.000001392    0.000001162
      7        1          -0.000000480    0.000000776   -0.000002566
      8        7          -0.000002001   -0.000000176    0.000012738
      9        6          -0.000012412    0.000013261    0.000013428
     10        6           0.000016586    0.000024273   -0.000013438
     11        1          -0.000001711   -0.000004701   -0.000005961
     12        1           0.000004635    0.000001222   -0.000003657
     13        1          -0.000005310   -0.000009752   -0.000002584
     14        1          -0.000007690   -0.000005417    0.000008105
     15        1          -0.000001439   -0.000002862    0.000006137
     16        6           0.000000292   -0.000001243   -0.000005560
     17        1          -0.000000993    0.000000973   -0.000000382
     18        1          -0.000000707   -0.000002272    0.000000401
     19        1          -0.000000014   -0.000000152    0.000004301
     20       17          -0.001177715    0.001043238   -0.000684687
 -------------------------------------------------------------------
 Cartesian Forces:  Max     0.004039088 RMS     0.000932258

 GradGradGradGradGradGradGradGradGradGradGradGradGradGradGradGradGradGrad
 Berny optimization.
 FormGI is forming the generalized inverse of G from B-inverse, IUseBI=4.
 Internal  Forces:  Max     0.003459552 RMS     0.000366073
 Search for a local minimum.
 Step number   1 out of a maximum of  117
 All quantities printed in internal units (Hartrees-Bohrs-Radians)
 Mixed Optimization -- En-DIIS/RFO-DIIS
 Second derivative matrix not updated -- first step.
 ITU=  0
     Eigenvalues ---    0.00420   0.00643   0.00899   0.01166   0.01466
     Eigenvalues ---    0.01638   0.02123   0.02169   0.02227   0.02362
     Eigenvalues ---    0.02430   0.02523   0.03862   0.04207   0.04397
     Eigenvalues ---    0.04931   0.06158   0.07540   0.07643   0.08000
     Eigenvalues ---    0.09255   0.10311   0.11148   0.14500   0.15780
     Eigenvalues ---    0.15997   0.15999   0.16000   0.16000   0.16000
     Eigenvalues ---    0.16549   0.18024   0.22904   0.23672   0.24999
     Eigenvalues ---    0.29264   0.33149   0.33633   0.34063   0.34257
     Eigenvalues ---    0.34313   0.34534   0.34607   0.34784   0.34793
     Eigenvalues ---    0.34987   0.36499   0.36503   0.36968   0.42945
     Eigenvalues ---    0.45963   0.49227   0.55052   0.56768
 RFO step:  Lambda=-5.13373376D-04 EMin= 4.19737563D-03
 Linear search not attempted -- first point.
 Iteration  1 RMS(Cart)=  0.02837222 RMS(Int)=  0.00061394
 Iteration  2 RMS(Cart)=  0.00077538 RMS(Int)=  0.00021986
 Iteration  3 RMS(Cart)=  0.00000096 RMS(Int)=  0.00021986
 Variable       Old X    -DE/DX   Delta X   Delta X   Delta X     New X
                                 (Linear)    (Quad)   (Total)
    R1        2.57857  -0.00003   0.00000  -0.00008  -0.00003   2.57854
    R2        2.60902   0.00009   0.00000   0.00026   0.00015   2.60917
    R3        2.06805   0.00001   0.00000   0.00002   0.00002   2.06807
    R4        2.03302   0.00000   0.00000   0.00000   0.00000   2.03302
    R5        2.62168  -0.00012   0.00000  -0.00034  -0.00020   2.62148
    R6        2.51909   0.00010   0.00000   0.00024   0.00012   2.51921
    R7        2.03309   0.00000   0.00000   0.00000   0.00000   2.03308
    R8        2.53515  -0.00004   0.00000  -0.00009  -0.00005   2.53510
    R9        2.80864  -0.00022   0.00000  -0.00085  -0.00057   2.80808
   R10        2.75894   0.00000   0.00000   0.00000   0.00000   2.75894
   R11        2.87497  -0.00009   0.00000  -0.00038  -0.00026   2.87471
   R12        2.06337  -0.00001   0.00000  -0.00054  -0.00057   2.06280
   R13        2.06438   0.00000   0.00000   0.00000   0.00000   2.06438
   R14        2.06318   0.00000   0.00000  -0.00001  -0.00001   2.06318
   R15        2.06145   0.00008   0.00000   0.00085   0.00072   2.06218
   R16        2.06899   0.00001   0.00000   0.00002   0.00002   2.06901
   R17        4.58171  -0.00001   0.00000  -0.00774  -0.00771   4.57401
   R18        5.53750   0.00013   0.00000   0.02216   0.02198   5.55948
   R19        2.06013   0.00000   0.00000   0.00000   0.00000   2.06013
   R20        2.06027   0.00000   0.00000   0.00000   0.00000   2.06027
   R21        2.05696   0.00000   0.00000   0.00000   0.00000   2.05696
    A1        1.85476   0.00016   0.00000   0.00091   0.00071   1.85547
    A2        2.34859  -0.00007   0.00000  -0.00042  -0.00032   2.34827
    A3        2.07203  -0.00008   0.00000  -0.00045  -0.00035   2.07167
    A4        2.28343   0.00001   0.00000   0.00013   0.00012   2.28354
    A5        1.87581  -0.00002   0.00000  -0.00026  -0.00022   1.87559
    A6        2.12381   0.00001   0.00000   0.00012   0.00010   2.12391
    A7        2.20057  -0.00008   0.00000  -0.00048  -0.00038   2.20020
    A8        1.89026   0.00017   0.00000   0.00096   0.00075   1.89102
    A9        2.19230  -0.00008   0.00000  -0.00048  -0.00038   2.19192
   A10        1.91382  -0.00027   0.00000  -0.00138  -0.00103   1.91279
   A11        2.20096  -0.00069   0.00000  -0.00362  -0.00272   2.19824
   A12        2.16775   0.00096   0.00000   0.00493   0.00369   2.17144
   A13        1.89008  -0.00003   0.00000  -0.00025  -0.00022   1.88986
   A14        2.19491   0.00001   0.00000   0.00013   0.00011   2.19503
   A15        2.19818   0.00001   0.00000   0.00012   0.00011   2.19828
   A16        1.94136   0.00000   0.00000  -0.00060  -0.00057   1.94079
   A17        1.84636  -0.00032   0.00000  -0.00656  -0.00616   1.84020
   A18        1.86431   0.00016   0.00000   0.00363   0.00340   1.86771
   A19        1.90218   0.00014   0.00000  -0.00244  -0.00272   1.89946
   A20        1.96811   0.00003   0.00000   0.00412   0.00408   1.97220
   A21        1.93773  -0.00003   0.00000   0.00128   0.00140   1.93913
   A22        1.89880  -0.00002   0.00000   0.00002   0.00008   1.89888
   A23        1.90357  -0.00017   0.00000  -0.00182  -0.00168   1.90189
   A24        1.96151   0.00010   0.00000   0.00071   0.00058   1.96209
   A25        1.87819   0.00010   0.00000   0.00057   0.00044   1.87863
   A26        1.89072  -0.00002   0.00000   0.00028   0.00029   1.89101
   A27        1.92896   0.00001   0.00000   0.00026   0.00030   1.92926
   A28        2.28042   0.00000   0.00000  -0.00335  -0.00367   2.27675
   A29        2.00435   0.00012   0.00000   0.00085   0.00050   2.00484
   A30        1.91513   0.00000   0.00000   0.00000   0.00000   1.91513
   A31        1.91707   0.00000   0.00000   0.00001   0.00001   1.91708
   A32        1.90454   0.00000   0.00000   0.00001   0.00001   1.90455
   A33        1.91477   0.00000   0.00000  -0.00001  -0.00001   1.91477
   A34        1.90564   0.00000   0.00000  -0.00001  -0.00001   1.90562
   A35        1.90656   0.00000   0.00000   0.00000   0.00000   1.90656
   A36        0.91712  -0.00005   0.00000  -0.00445  -0.00448   0.91264
    D1        3.12703   0.00000   0.00000   0.00023   0.00022   3.12725
    D2        0.00340   0.00001   0.00000   0.00056   0.00056   0.00396
    D3        0.12691  -0.00001   0.00000  -0.00011  -0.00010   0.12681
    D4       -2.99672  -0.00001   0.00000   0.00022   0.00024  -2.99648
    D5       -0.00720  -0.00001   0.00000  -0.00083  -0.00083  -0.00803
    D6       -3.11118  -0.00001   0.00000   0.00093   0.00095  -3.11023
    D7        3.01959   0.00000   0.00000  -0.00057  -0.00058   3.01901
    D8       -0.08439   0.00000   0.00000   0.00118   0.00120  -0.08319
    D9        0.00147   0.00000   0.00000  -0.00011  -0.00011   0.00136
   D10        3.13785   0.00000   0.00000  -0.00022  -0.00022   3.13763
   D11       -3.12415   0.00000   0.00000   0.00019   0.00019  -3.12396
   D12        0.01223   0.00000   0.00000   0.00008   0.00009   0.01232
   D13        3.13955   0.00001   0.00000   0.00066   0.00066   3.14021
   D14       -0.03878  -0.00003   0.00000  -0.00127  -0.00126  -0.04004
   D15        0.00822   0.00001   0.00000   0.00077   0.00077   0.00900
   D16        3.11308  -0.00003   0.00000  -0.00116  -0.00114   3.11193
   D17       -1.13034   0.00346   0.00000   0.12396   0.12486  -1.00547
   D18       -0.00596  -0.00001   0.00000  -0.00041  -0.00041  -0.00637
   D19        3.14086   0.00000   0.00000  -0.00030  -0.00030   3.14055
   D20       -3.13735  -0.00001   0.00000  -0.00030  -0.00029  -3.13764
   D21        0.00947  -0.00001   0.00000  -0.00019  -0.00019   0.00928
   D22        1.85296  -0.00023   0.00000  -0.04050  -0.04020   1.81275
   D23       -0.21006  -0.00020   0.00000  -0.03338  -0.03304  -0.24310
   D24       -2.27575  -0.00009   0.00000  -0.03335  -0.03322  -2.30898
   D25       -1.24581  -0.00020   0.00000  -0.03834  -0.03804  -1.28385
   D26        2.97436  -0.00017   0.00000  -0.03122  -0.03088   2.94348
   D27        0.90867  -0.00006   0.00000  -0.03119  -0.03106   0.87760
   D28       -1.04496   0.00000   0.00000   0.00030   0.00030  -1.04466
   D29        1.06133   0.00000   0.00000   0.00029   0.00029   1.06163
   D30       -3.13225   0.00000   0.00000   0.00031   0.00031  -3.13194
   D31        2.09053   0.00000   0.00000   0.00017   0.00017   2.09070
   D32       -2.08637   0.00000   0.00000   0.00017   0.00017  -2.08620
   D33        0.00323   0.00000   0.00000   0.00019   0.00019   0.00341
   D34        3.12947   0.00022   0.00000   0.00870   0.00842   3.13789
   D35       -1.10967   0.00023   0.00000   0.00837   0.00805  -1.10162
   D36        1.03572   0.00019   0.00000   0.00788   0.00763   1.04335
   D37       -1.12468  -0.00009   0.00000  -0.00110  -0.00102  -1.12570
   D38        0.91937  -0.00008   0.00000  -0.00143  -0.00139   0.91798
   D39        3.06476  -0.00012   0.00000  -0.00192  -0.00181   3.06295
   D40        1.03549  -0.00001   0.00000   0.00161   0.00162   1.03710
   D41        3.07954   0.00000   0.00000   0.00129   0.00125   3.08078
   D42       -1.05826  -0.00004   0.00000   0.00080   0.00083  -1.05743
   D43        1.12484  -0.00020   0.00000  -0.04282  -0.04254   1.08229
   D44       -0.96412  -0.00009   0.00000  -0.03718  -0.03707  -1.00119
   D45        3.14099  -0.00020   0.00000  -0.04157  -0.04130   3.09969
   D46       -0.53862   0.00012   0.00000   0.02416   0.02396  -0.51467
   D47        1.51845   0.00006   0.00000   0.02352   0.02339   1.54184
   D48       -2.70336   0.00011   0.00000   0.02434   0.02417  -2.67919
   D49        0.52123   0.00002   0.00000   0.03240   0.03230   0.55352
   D50        0.16172  -0.00006   0.00000  -0.02651  -0.02647   0.13525
         Item               Value     Threshold  Converged?
 Maximum Force            0.003460     0.000450     NO 
 RMS     Force            0.000366     0.000300     NO 
 Maximum Displacement     0.151719     0.001800     NO 
 RMS     Displacement     0.028491     0.001200     NO 
 Predicted change in Energy=-2.651684D-04
 GradGradGradGradGradGradGradGradGradGradGradGradGradGradGradGradGradGrad

                          Input orientation:                          
 ---------------------------------------------------------------------
 Center     Atomic      Atomic             Coordinates (Angstroms)
 Number     Number       Type             X           Y           Z
 ---------------------------------------------------------------------
      1          6           0       -0.333645    1.741820   -0.446432
      2          6           0       -1.662925    1.644467   -0.154196
      3          6           0       -0.795582   -0.385980   -0.025455
      4          7           0        0.176285    0.461368   -0.364064
      5          1           0        0.359422    2.574551   -0.600940
      6          1           0       -2.427072    2.399343   -0.093811
      7          1           0       -0.690882   -1.448045    0.110677
      8          7           0       -1.935434    0.309239    0.105230
      9          6           0        1.596605    0.073406   -0.564772
     10          6           0        2.281431   -0.213331    0.762988
     11          1           0        2.072220    0.940692   -1.026471
     12          1           0        1.601099   -0.784291   -1.241326
     13          1           0        3.317889   -0.497186    0.570177
     14          1           0        2.294344    0.700036    1.360010
     15          1           0        1.798456   -1.026231    1.314959
     16          6           0       -3.238716   -0.241294    0.465628
     17          1           0       -3.591109    0.220810    1.387993
     18          1           0       -3.953839   -0.054338   -0.335803
     19          1           0       -3.142697   -1.314869    0.617411
     20         17           0        2.370659    3.194957   -0.197104
 ---------------------------------------------------------------------
                    Distance matrix (angstroms):
                    1          2          3          4          5
     1  C    0.000000
     2  C    1.364503   0.000000
     3  C    2.217687   2.211690   0.000000
     4  N    1.380713   2.196922   1.333110   0.000000
     5  H    1.094374   2.270358   3.229545   2.134289   0.000000
     6  H    2.222412   1.075827   3.228692   3.256724   2.837680
     7  H    3.257794   3.252485   1.075861   2.150167   4.217916
     8  N    2.218637   1.387227   1.341518   2.168581   3.301012
     9  C    2.554109   3.641613   2.494887   1.485970   2.790638
    10  C    3.481944   4.455399   3.181110   2.481351   3.650576
    11  H    2.601237   3.899676   3.314570   2.064728   2.405047
    12  H    3.279683   4.211243   2.716813   2.085988   3.637812
    13  H    4.402310   5.469909   4.157859   3.414865   4.422625
    14  H    3.354828   4.341054   3.556204   2.741453   3.332125
    15  H    3.912858   4.612180   2.989259   2.768304   4.325173
    16  C    3.633735   2.534441   2.496197   3.583902   4.691817
    17  H    4.036045   2.850094   3.190768   4.161830   5.010254
    18  H    4.042799   2.857832   3.190750   4.162292   5.058218
    19  H    4.285543   3.397465   2.604814   3.890238   5.373714
    20  Cl   3.080103   4.321535   4.783059   3.509367   2.143143
                    6          7          8          9         10
     6  H    0.000000
     7  H    4.225939   0.000000
     8  N    2.156353   2.153366   0.000000
     9  C    4.671377   2.829071   3.602752   0.000000
    10  C    5.452538   3.284002   4.299730   1.521233   0.000000
    11  H    4.820907   3.825428   4.211980   1.091586   2.139557
    12  H    5.261033   2.742564   3.939047   1.092424   2.192287
    13  H    6.468024   4.145541   5.335157   2.139275   1.091785
    14  H    5.224271   3.884155   4.429246   2.141095   1.091256
    15  H    5.619099   2.797325   4.145945   2.187083   1.094871
    16  C    2.818634   2.841425   1.459971   4.953896   5.528220
    17  H    2.880405   3.581610   2.096320   5.545033   5.921641
    18  H    2.900022   3.576122   2.097774   5.556633   6.333341
    19  H    3.848808   2.507172   2.087471   5.077976   5.536762
    20  Cl   4.864350   5.570029   5.192419   3.237038   3.542056
                   11         12         13         14         15
    11  H    0.000000
    12  H    1.801022   0.000000
    13  H    2.483640   2.512238   0.000000
    14  H    2.408848   3.074209   1.762050   0.000000
    15  H    3.070184   2.575282   1.772925   1.796644   0.000000
    16  C    5.641762   5.160653   6.562429   5.683377   5.168229
    17  H    6.198480   5.906146   6.994182   5.904998   5.532437
    18  H    6.146583   5.675397   7.341317   6.518025   6.062878
    19  H    5.914833   5.122500   6.512296   5.845742   4.998487
    20  Cl   2.420460   4.185335   3.888172   2.941948   4.520196
                   16         17         18         19         20
    16  C    0.000000
    17  H    1.090173   0.000000
    18  H    1.090250   1.782906   0.000000
    19  H    1.088495   1.775719   1.776375   0.000000
    20  Cl   6.611514   6.848413   7.111710   7.169313   0.000000
 Stoichiometry    C6H11ClN2
 Framework group  C1[X(C6H11ClN2)]
 Deg. of freedom    54
 Full point group                 C1      NOp   1
 Largest Abelian subgroup         C1      NOp   1
 Largest concise Abelian subgroup C1      NOp   1
                         Standard orientation:                         
 ---------------------------------------------------------------------
 Center     Atomic      Atomic             Coordinates (Angstroms)
 Number     Number       Type             X           Y           Z
 ---------------------------------------------------------------------
      1          6           0        0.113938   -0.938308   -0.296390
      2          6           0        1.378029   -1.370391   -0.018461
      3          6           0        1.442029    0.834168   -0.183972
      4          7           0        0.187987    0.436556   -0.399522
      5          1           0       -0.870219   -1.415668   -0.331277
      6          1           0        1.761470   -2.361163    0.151089
      7          1           0        1.796288    1.849876   -0.201764
      8          7           0        2.195390   -0.251468    0.047353
      9          6           0       -0.951722    1.354738   -0.656647
     10          6           0       -1.376675    2.073598    0.614889
     11          1           0       -1.770789    0.714848   -0.990158
     12          1           0       -0.638869    2.038368   -1.449215
     13          1           0       -2.210756    2.738226    0.381279
     14          1           0       -1.733104    1.336851    1.336694
     15          1           0       -0.568258    2.673376    1.045551
     16          6           0        3.628182   -0.256670    0.327698
     17          1           0        3.809855   -0.698769    1.307504
     18          1           0        4.152823   -0.829670   -0.437200
     19          1           0        3.996018    0.767783    0.323763
     20         17           0       -2.930046   -1.076028    0.153308
 ---------------------------------------------------------------------
 Rotational constants (GHZ):      2.3305079      0.7234879      0.5824550
 Standard basis: 6-311+G(d,p) (5D, 7F)
 There are   281 symmetry adapted cartesian basis functions of A   symmetry.
 There are   272 symmetry adapted basis functions of A   symmetry.
   272 basis functions,   429 primitive gaussians,   281 cartesian basis functions
    39 alpha electrons       39 beta electrons
       nuclear repulsion energy       517.3367550648 Hartrees.
 NAtoms=   20 NActive=   20 NUniq=   20 SFac= 1.00D+00 NAtFMM=   60 NAOKFM=F Big=F
 Integral buffers will be    131072 words long.
 Raffenetti 2 integral format.
 Two-electron integral symmetry is turned on.
 Nuclear repulsion after empirical dispersion term =      517.3039965832 Hartrees.
 One-electron integrals computed using PRISM.
 NBasis=   272 RedAO= T EigKep=  1.39D-05  NBF=   272
 NBsUse=   272 1.00D-06 EigRej= -1.00D+00 NBFU=   272
 Initial guess from the checkpoint file:  "CJS1_emim-cl_BE_6-311+g-d-p-_gd3bj_opt-modredundant_unfrz.chk"
 B after Tr=     0.000000    0.000000    0.000000
         Rot=    0.999996   -0.002504   -0.000497   -0.001376 Ang=  -0.33 deg.
 ExpMin= 4.38D-02 ExpMax= 1.06D+05 ExpMxC= 3.62D+03 IAcc=2 IRadAn=         4 AccDes= 0.00D+00
 Harris functional with IExCor=  402 and IRadAn=       4 diagonalized for initial guess.
 HarFok:  IExCor=  402 AccDes= 0.00D+00 IRadAn=         4 IDoV= 1 UseB2=F ITyADJ=14
 ICtDFT=  3500011 ScaDFX=  1.000000  1.000000  1.000000  1.000000
 FoFCou: FMM=F IPFlag=           0 FMFlag=      100000 FMFlg1=           0
         NFxFlg=           0 DoJE=T BraDBF=F KetDBF=T FulRan=T
         wScrn=  0.000000 ICntrl=     500 IOpCl=  0 I1Cent=   200000004 NGrid=           0
         NMat0=    1 NMatS0=      1 NMatT0=    0 NMatD0=    1 NMtDS0=    0 NMtDT0=    0
 Petite list used in FoFCou.
 Keep R1 ints in memory in canonical form, NReq=700735283.
 Requested convergence on RMS density matrix=1.00D-09 within 128 cycles.
 Requested convergence on MAX density matrix=1.00D-07.
 Requested convergence on             energy=1.00D-07.
 No special actions if energy rises.
 SCF Done:  E(RB3LYP) =  -805.104038101     A.U. after   14 cycles
            NFock= 14  Conv=0.25D-09     -V/T= 2.0033
 Calling FoFJK, ICntrl=      2127 FMM=F ISym2X=0 I1Cent= 0 IOpClX= 0 NMat=1 NMatS=1 NMatT=0.
 ***** Axes restored to original set *****
 -------------------------------------------------------------------
 Center     Atomic                   Forces (Hartrees/Bohr)
 Number     Number              X              Y              Z
 -------------------------------------------------------------------
      1        6          -0.003323707   -0.000927513    0.001337541
      2        6           0.000353312   -0.000633720    0.000129426
      3        6          -0.002822354    0.001773591   -0.000965661
      4        7           0.002791867   -0.003963457    0.000116506
      5        1           0.000906017    0.001290025   -0.000842335
      6        1          -0.000006130    0.000003244   -0.000058298
      7        1          -0.000065385   -0.000081873   -0.000008881
      8        7          -0.000276801   -0.000454923    0.000240635
      9        6          -0.000431168    0.000971358    0.000333097
     10        6           0.000080557   -0.000104694    0.000011456
     11        1           0.000311040   -0.000420716   -0.000618477
     12        1          -0.000091900    0.000023193    0.000235843
     13        1           0.000072165   -0.000079599    0.000065812
     14        1          -0.000021108   -0.000339026    0.000057734
     15        1          -0.000030894    0.000155465    0.000007773
     16        6           0.000197529   -0.000108770   -0.000030329
     17        1          -0.000020774    0.000015974    0.000002960
     18        1          -0.000009693    0.000010491   -0.000003054
     19        1          -0.000053680   -0.000032699    0.000013034
     20       17           0.002441108    0.002903650   -0.000024781
 -------------------------------------------------------------------
 Cartesian Forces:  Max     0.003963457 RMS     0.001079639

 GradGradGradGradGradGradGradGradGradGradGradGradGradGradGradGradGradGrad
 Berny optimization.
 Using GEDIIS/GDIIS optimizer.
 FormGI is forming the generalized inverse of G from B-inverse, IUseBI=4.
 Internal  Forces:  Max     0.002733539 RMS     0.000901475
 Search for a local minimum.
 Step number   2 out of a maximum of  117
 All quantities printed in internal units (Hartrees-Bohrs-Radians)
 Mixed Optimization -- En-DIIS/RFO-DIIS
 Swapping is turned off.
 Update second derivatives using D2CorX and points    1    2
 DE= -1.30D-04 DEPred=-2.65D-04 R= 4.92D-01
 Trust test= 4.92D-01 RLast= 1.79D-01 DXMaxT set to 3.00D-01
 ITU=  0  0
     Eigenvalues ---    0.00355   0.00507   0.00899   0.01214   0.01486
     Eigenvalues ---    0.01638   0.02125   0.02171   0.02360   0.02428
     Eigenvalues ---    0.02523   0.02602   0.03936   0.04181   0.04791
     Eigenvalues ---    0.06136   0.06347   0.07540   0.07643   0.08178
     Eigenvalues ---    0.09657   0.10546   0.11136   0.15772   0.15883
     Eigenvalues ---    0.15996   0.15999   0.16000   0.16000   0.16009
     Eigenvalues ---    0.17639   0.18483   0.22924   0.24991   0.26264
     Eigenvalues ---    0.29263   0.33240   0.33706   0.34167   0.34257
     Eigenvalues ---    0.34532   0.34606   0.34784   0.34793   0.34987
     Eigenvalues ---    0.35519   0.36501   0.36503   0.36970   0.44131
     Eigenvalues ---    0.45988   0.49327   0.55060   0.57217
 En-DIIS/RFO-DIIS IScMMF=        0 using points:     2    1
 RFO step:  Lambda=-2.15133546D-04.
 DidBck=T Rises=F RFO-DIIS coefs:    0.65079    0.34921
 Iteration  1 RMS(Cart)=  0.08508261 RMS(Int)=  0.00550674
 Iteration  2 RMS(Cart)=  0.01262561 RMS(Int)=  0.00248276
 Iteration  3 RMS(Cart)=  0.00041815 RMS(Int)=  0.00247524
 Iteration  4 RMS(Cart)=  0.00000467 RMS(Int)=  0.00247524
 Iteration  5 RMS(Cart)=  0.00000016 RMS(Int)=  0.00247524
 Variable       Old X    -DE/DX   Delta X   Delta X   Delta X     New X
                                 (Linear)    (Quad)   (Total)
    R1        2.57854  -0.00006   0.00001  -0.00022   0.00032   2.57886
    R2        2.60917   0.00153  -0.00005   0.00274   0.00134   2.61051
    R3        2.06807   0.00167  -0.00001   0.00323   0.00322   2.07129
    R4        2.03302   0.00000   0.00000   0.00000   0.00000   2.03302
    R5        2.62148  -0.00092   0.00007  -0.00212  -0.00041   2.62107
    R6        2.51921   0.00175  -0.00004   0.00246   0.00108   2.52029
    R7        2.03308   0.00007   0.00000   0.00012   0.00012   2.03321
    R8        2.53510  -0.00092   0.00002  -0.00132  -0.00082   2.53428
    R9        2.80808   0.00111   0.00020   0.00046   0.00366   2.81174
   R10        2.75894  -0.00006   0.00000  -0.00010  -0.00010   2.75884
   R11        2.87471  -0.00022   0.00009   0.00016   0.00203   2.87674
   R12        2.06280   0.00181   0.00020   0.00556   0.00621   2.06901
   R13        2.06438  -0.00016   0.00000  -0.00030  -0.00030   2.06408
   R14        2.06318   0.00008   0.00000   0.00013   0.00013   2.06331
   R15        2.06218   0.00057  -0.00025   0.00113  -0.00094   2.06124
   R16        2.06901  -0.00010  -0.00001  -0.00015  -0.00015   2.06886
   R17        4.57401   0.00192   0.00269   0.05474   0.05878   4.63279
   R18        5.55948   0.00157  -0.00767   0.04753   0.03682   5.59629
   R19        2.06013   0.00002   0.00000   0.00003   0.00003   2.06016
   R20        2.06027   0.00001   0.00000   0.00002   0.00002   2.06030
   R21        2.05696   0.00003   0.00000   0.00006   0.00006   2.05702
    A1        1.85547   0.00093  -0.00025   0.00503   0.00249   1.85796
    A2        2.34827  -0.00052   0.00011  -0.00235  -0.00115   2.34711
    A3        2.07167  -0.00038   0.00012  -0.00190  -0.00059   2.07108
    A4        2.28354  -0.00021  -0.00004   0.00014  -0.00009   2.28345
    A5        1.87559   0.00038   0.00008  -0.00028   0.00017   1.87575
    A6        2.12391  -0.00018  -0.00004   0.00023   0.00000   2.12391
    A7        2.20020  -0.00085   0.00013  -0.00338  -0.00208   2.19811
    A8        1.89102   0.00184  -0.00026   0.00735   0.00474   1.89576
    A9        2.19192  -0.00099   0.00013  -0.00394  -0.00264   2.18928
   A10        1.91279  -0.00272   0.00036  -0.00940  -0.00511   1.90768
   A11        2.19824   0.00118   0.00095  -0.00473   0.00638   2.20462
   A12        2.17144   0.00155  -0.00129   0.01443  -0.00103   2.17041
   A13        1.88986  -0.00044   0.00008  -0.00263  -0.00224   1.88762
   A14        2.19503   0.00037  -0.00004   0.00171   0.00151   2.19654
   A15        2.19828   0.00007  -0.00004   0.00093   0.00074   2.19902
   A16        1.94079  -0.00008   0.00020   0.00077   0.00087   1.94166
   A17        1.84020   0.00273   0.00215   0.01203   0.01898   1.85918
   A18        1.86771  -0.00162  -0.00119  -0.00584  -0.00917   1.85853
   A19        1.89946  -0.00177   0.00095   0.00236   0.00099   1.90046
   A20        1.97220   0.00087  -0.00143   0.00092  -0.00144   1.97076
   A21        1.93913   0.00002  -0.00049  -0.00965  -0.00911   1.93002
   A22        1.89888   0.00076  -0.00003   0.00078   0.00081   1.89969
   A23        1.90189   0.00041   0.00059   0.00091   0.00455   1.90644
   A24        1.96209  -0.00086  -0.00020  -0.00065  -0.00232   1.95978
   A25        1.87863  -0.00111  -0.00015  -0.00051  -0.00193   1.87670
   A26        1.89101   0.00001  -0.00010  -0.00014   0.00003   1.89104
   A27        1.92926   0.00076  -0.00011  -0.00036  -0.00117   1.92809
   A28        2.27675   0.00177   0.00128   0.01638   0.01598   2.29273
   A29        2.00484   0.00023  -0.00017   0.00248   0.00017   2.00501
   A30        1.91513   0.00000   0.00000  -0.00004  -0.00003   1.91510
   A31        1.91708  -0.00002   0.00000  -0.00009  -0.00010   1.91699
   A32        1.90455   0.00009   0.00000   0.00044   0.00044   1.90499
   A33        1.91477  -0.00002   0.00000  -0.00019  -0.00018   1.91458
   A34        1.90562  -0.00002   0.00000  -0.00006  -0.00005   1.90557
   A35        1.90656  -0.00003   0.00000  -0.00007  -0.00007   1.90649
   A36        0.91264  -0.00068   0.00157  -0.00797  -0.00527   0.90737
    D1        3.12725   0.00005  -0.00008   0.00205   0.00209   3.12934
    D2        0.00396  -0.00013  -0.00020  -0.00343  -0.00322   0.00074
    D3        0.12681  -0.00020   0.00004  -0.00498  -0.00482   0.12199
    D4       -2.99648  -0.00038  -0.00008  -0.01046  -0.01012  -3.00660
    D5       -0.00803   0.00024   0.00029   0.00630   0.00595  -0.00208
    D6       -3.11023  -0.00008  -0.00033  -0.00225  -0.00149  -3.11171
    D7        3.01901   0.00040   0.00020   0.01185   0.01145   3.03047
    D8       -0.08319   0.00008  -0.00042   0.00330   0.00402  -0.07917
    D9        0.00136   0.00000   0.00004  -0.00050  -0.00054   0.00082
   D10        3.13763   0.00006   0.00008   0.00246   0.00237   3.14000
   D11       -3.12396  -0.00016  -0.00007  -0.00537  -0.00525  -3.12921
   D12        0.01232  -0.00010  -0.00003  -0.00241  -0.00235   0.00997
   D13        3.14021  -0.00015  -0.00023  -0.00426  -0.00405   3.13616
   D14       -0.04004   0.00015   0.00044   0.00361   0.00341  -0.03662
   D15        0.00900  -0.00024  -0.00027  -0.00669  -0.00637   0.00263
   D16        3.11193   0.00007   0.00040   0.00118   0.00110   3.11303
   D17       -1.00547  -0.00095  -0.04360   0.24896   0.21303  -0.79245
   D18       -0.00637   0.00014   0.00014   0.00439   0.00424  -0.00213
   D19        3.14055   0.00007   0.00011   0.00142   0.00133  -3.14130
   D20       -3.13764   0.00006   0.00010   0.00197   0.00194  -3.13571
   D21        0.00928  -0.00001   0.00007  -0.00100  -0.00098   0.00830
   D22        1.81275  -0.00056   0.01404  -0.14974  -0.13170   1.68105
   D23       -0.24310  -0.00001   0.01154  -0.15997  -0.14463  -0.38772
   D24       -2.30898  -0.00062   0.01160  -0.15205  -0.13906  -2.44804
   D25       -1.28385  -0.00083   0.01329  -0.15892  -0.14015  -1.42401
   D26        2.94348  -0.00029   0.01078  -0.16914  -0.15308   2.79040
   D27        0.87760  -0.00089   0.01085  -0.16122  -0.14752   0.73009
   D28       -1.04466  -0.00002  -0.00010  -0.00090  -0.00096  -1.04562
   D29        1.06163  -0.00005  -0.00010  -0.00121  -0.00126   1.06036
   D30       -3.13194  -0.00004  -0.00011  -0.00108  -0.00114  -3.13308
   D31        2.09070   0.00006  -0.00006   0.00256   0.00245   2.09315
   D32       -2.08620   0.00002  -0.00006   0.00225   0.00214  -2.08406
   D33        0.00341   0.00004  -0.00006   0.00238   0.00226   0.00568
   D34        3.13789  -0.00178  -0.00294  -0.01826  -0.02436   3.11353
   D35       -1.10162  -0.00245  -0.00281  -0.01793  -0.02367  -1.12529
   D36        1.04335  -0.00177  -0.00266  -0.01819  -0.02348   1.01987
   D37       -1.12570   0.00044   0.00036  -0.00184  -0.00017  -1.12586
   D38        0.91798  -0.00023   0.00049  -0.00151   0.00053   0.91851
   D39        3.06295   0.00045   0.00063  -0.00177   0.00071   3.06366
   D40        1.03710  -0.00024  -0.00057  -0.01191  -0.01216   1.02494
   D41        3.08078  -0.00091  -0.00044  -0.01158  -0.01147   3.06931
   D42       -1.05743  -0.00023  -0.00029  -0.01183  -0.01128  -1.06872
   D43        1.08229   0.00106   0.01486   0.04266   0.06075   1.14305
   D44       -1.00119   0.00055   0.01295   0.03399   0.04864  -0.95255
   D45        3.09969   0.00069   0.01442   0.03778   0.05597  -3.12752
   D46       -0.51467  -0.00170  -0.00837  -0.02599  -0.03593  -0.55059
   D47        1.54184  -0.00118  -0.00817  -0.02486  -0.03358   1.50826
   D48       -2.67919  -0.00140  -0.00844  -0.02554  -0.03534  -2.71453
   D49        0.55352  -0.00012  -0.01128  -0.03077  -0.04244   0.51109
   D50        0.13525   0.00111   0.00924   0.02907   0.03849   0.17373
         Item               Value     Threshold  Converged?
 Maximum Force            0.002734     0.000450     NO 
 RMS     Force            0.000901     0.000300     NO 
 Maximum Displacement     0.450948     0.001800     NO 
 RMS     Displacement     0.093807     0.001200     NO 
 Predicted change in Energy=-5.250367D-04
 GradGradGradGradGradGradGradGradGradGradGradGradGradGradGradGradGradGrad

                          Input orientation:                          
 ---------------------------------------------------------------------
 Center     Atomic      Atomic             Coordinates (Angstroms)
 Number     Number       Type             X           Y           Z
 ---------------------------------------------------------------------
      1          6           0       -0.330638    1.739467   -0.338293
      2          6           0       -1.663957    1.641515   -0.064442
      3          6           0       -0.823869   -0.401901   -0.062032
      4          7           0        0.165868    0.450369   -0.331786
      5          1           0        0.373273    2.573486   -0.439820
      6          1           0       -2.419450    2.401053    0.034229
      7          1           0       -0.735348   -1.472162    0.003721
      8          7           0       -1.956582    0.296356    0.104997
      9          6           0        1.583194    0.050895   -0.545038
     10          6           0        2.305352   -0.149216    0.780051
     11          1           0        2.060201    0.873344   -1.087985
     12          1           0        1.561646   -0.852663   -1.158355
     13          1           0        3.329951   -0.468238    0.578630
     14          1           0        2.355889    0.803314    1.309101
     15          1           0        1.824284   -0.908972    1.404480
     16          6           0       -3.270071   -0.260572    0.414733
     17          1           0       -3.627369    0.144220    1.361830
     18          1           0       -3.973959   -0.012219   -0.379957
     19          1           0       -3.188720   -1.342979    0.496370
     20         17           0        2.526814    3.190027   -0.435735
 ---------------------------------------------------------------------
                    Distance matrix (angstroms):
                    1          2          3          4          5
     1  C    0.000000
     2  C    1.364672   0.000000
     3  C    2.214735   2.209367   0.000000
     4  N    1.381425   2.199674   1.333683   0.000000
     5  H    1.096078   2.271516   3.229365   2.135958   0.000000
     6  H    2.222523   1.075827   3.226716   3.259296   2.837914
     7  H    3.255045   3.249915   1.075927   2.149623   4.218179
     8  N    2.218732   1.387009   1.341082   2.172394   3.303085
     9  C    2.560619   3.647607   2.496451   1.487907   2.799723
    10  C    3.430198   4.435685   3.250381   2.484567   3.554451
    11  H    2.651097   3.937903   3.316125   2.083084   2.481195
    12  H    3.312458   4.221621   2.663792   2.080697   3.696894
    13  H    4.372027   5.459279   4.203459   3.418204   4.362485
    14  H    3.287509   4.329938   3.666525   2.759216   3.181667
    15  H    3.833429   4.564049   3.069282   2.759125   4.199333
    16  C    3.634208   2.535181   2.496234   3.587256   4.694262
    17  H    4.037780   2.851514   3.191434   4.165419   5.015218
    18  H    4.042762   2.858408   3.189984   4.165871   5.058446
    19  H    4.285647   3.398032   2.605756   3.892968   5.376146
    20  Cl   3.206033   4.483114   4.926324   3.618093   2.240062
                    6          7          8          9         10
     6  H    0.000000
     7  H    4.223615   0.000000
     8  N    2.156156   2.151586   0.000000
     9  C    4.677602   2.827803   3.607327   0.000000
    10  C    5.420690   3.405690   4.338008   1.522307   0.000000
    11  H    4.864210   3.808977   4.229736   1.094874   2.143662
    12  H    5.278073   2.647711   3.910783   1.092263   2.192112
    13  H    6.448630   4.226705   5.362496   2.140862   1.091856
    14  H    5.194414   4.054325   4.506027   2.145000   1.090761
    15  H    5.553660   2.971704   4.175694   2.186342   1.094791
    16  C    2.820033   2.839314   1.459917   4.957050   5.588488
    17  H    2.883554   3.580634   2.096260   5.549309   5.968396
    18  H    2.900332   3.573128   2.097667   5.559962   6.387028
    19  H    3.850081   2.505679   2.087763   5.079230   5.629420
    20  Cl   5.030793   5.707085   5.363447   3.279713   3.560580
                   11         12         13         14         15
    11  H    0.000000
    12  H    1.797946   0.000000
    13  H    2.487914   2.508347   0.000000
    14  H    2.416270   3.075942   1.760463   0.000000
    15  H    3.073222   2.576873   1.772938   1.795445   0.000000
    16  C    5.652939   5.115727   6.605322   5.795098   5.229959
    17  H    6.235517   5.854143   7.028003   6.019681   5.552617
    18  H    6.139756   5.652890   7.380647   6.601892   6.132536
    19  H    5.913835   5.054157   6.577615   6.000816   5.113046
    20  Cl   2.451567   4.218658   3.880319   2.961431   4.547718
                   16         17         18         19         20
    16  C    0.000000
    17  H    1.090189   0.000000
    18  H    1.090262   1.782813   0.000000
    19  H    1.088526   1.775724   1.776364   0.000000
    20  Cl   6.799544   7.098038   7.246898   7.354202   0.000000
 Stoichiometry    C6H11ClN2
 Framework group  C1[X(C6H11ClN2)]
 Deg. of freedom    54
 Full point group                 C1      NOp   1
 Largest Abelian subgroup         C1      NOp   1
 Largest concise Abelian subgroup C1      NOp   1
                         Standard orientation:                         
 ---------------------------------------------------------------------
 Center     Atomic      Atomic             Coordinates (Angstroms)
 Number     Number       Type             X           Y           Z
 ---------------------------------------------------------------------
      1          6           0        0.137013   -0.933724   -0.131864
      2          6           0        1.408964   -1.366907    0.106510
      3          6           0        1.494392    0.812629   -0.245096
      4          7           0        0.221655    0.427883   -0.349114
      5          1           0       -0.854971   -1.396640   -0.076516
      6          1           0        1.787271   -2.348774    0.330618
      7          1           0        1.863098    1.815735   -0.369411
      8          7           0        2.245696   -0.263255    0.031520
      9          6           0       -0.915249    1.350098   -0.615263
     10          6           0       -1.375233    2.041389    0.660649
     11          1           0       -1.733975    0.732507   -0.998695
     12          1           0       -0.573031    2.051559   -1.379381
     13          1           0       -2.188565    2.727662    0.416374
     14          1           0       -1.771105    1.295270    1.350832
     15          1           0       -0.571940    2.614055    1.135349
     16          6           0        3.692843   -0.272720    0.223961
     17          1           0        3.928686   -0.636798    1.224129
     18          1           0        4.160941   -0.916316   -0.521250
     19          1           0        4.074416    0.740684    0.113047
     20         17           0       -3.061686   -1.036231    0.059099
 ---------------------------------------------------------------------
 Rotational constants (GHZ):      2.4208528      0.6861679      0.5601828
 Standard basis: 6-311+G(d,p) (5D, 7F)
 There are   281 symmetry adapted cartesian basis functions of A   symmetry.
 There are   272 symmetry adapted basis functions of A   symmetry.
   272 basis functions,   429 primitive gaussians,   281 cartesian basis functions
    39 alpha electrons       39 beta electrons
       nuclear repulsion energy       513.5720922209 Hartrees.
 NAtoms=   20 NActive=   20 NUniq=   20 SFac= 1.00D+00 NAtFMM=   60 NAOKFM=F Big=F
 Integral buffers will be    131072 words long.
 Raffenetti 2 integral format.
 Two-electron integral symmetry is turned on.
 Nuclear repulsion after empirical dispersion term =      513.5396649596 Hartrees.
 One-electron integrals computed using PRISM.
 NBasis=   272 RedAO= T EigKep=  1.07D-05  NBF=   272
[...]
    19  H    4.286502   3.398209   2.604968   3.891707   5.387495
    20  Cl   3.147052   4.416105   4.935169   3.624725   2.144662
                    6          7          8          9         10
     6  H    0.000000
     7  H    4.224599   0.000000
     8  N    2.156201   2.152461   0.000000
     9  C    4.663083   2.848110   3.607456   0.000000
    10  C    5.321820   3.654237   4.400142   1.521856   0.000000
    11  H    4.864514   3.743762   4.192750   1.093283   2.148737
    12  H    5.305817   2.550944   3.891060   1.092008   2.186979
    13  H    6.363813   4.429369   5.411995   2.140186   1.091849
    14  H    5.063064   4.332294   4.587911   2.147423   1.090951
    15  H    5.420462   3.342922   4.259981   2.181124   1.094267
    16  C    2.820744   2.839279   1.460040   4.961414   5.706865
    17  H    2.868929   3.598654   2.095916   5.566372   6.086765
    18  H    2.916960   3.554474   2.098247   5.547222   6.468722
    19  H    3.850344   2.505826   2.087888   5.090525   5.816053
    20  Cl   4.938553   5.739257   5.334620   3.317225   3.595895
                   11         12         13         14         15
    11  H    0.000000
    12  H    1.799065   0.000000
    13  H    2.498621   2.500455   0.000000
    14  H    2.422241   3.074283   1.759240   0.000000
    15  H    3.072417   2.567784   1.776003   1.795015   0.000000
    16  C    5.601459   5.080075   6.705494   5.945893   5.399721
    17  H    6.235429   5.807068   7.131393   6.201355   5.683582
    18  H    6.040274   5.642875   7.448159   6.680950   6.285181
    19  H    5.852223   4.995734   6.738447   6.231302   5.386739
    20  Cl   2.502808   4.265739   3.937312   2.981797   4.569769
                   16         17         18         19         20
    16  C    0.000000
    17  H    1.090077   0.000000
    18  H    1.090335   1.782735   0.000000
    19  H    1.088516   1.775539   1.776481   0.000000
    20  Cl   6.769014   7.167096   7.093151   7.347763   0.000000
 Stoichiometry    C6H11ClN2
 Framework group  C1[X(C6H11ClN2)]
 Deg. of freedom    54
 Full point group                 C1      NOp   1
 Largest Abelian subgroup         C1      NOp   1
 Largest concise Abelian subgroup C1      NOp   1
                         Standard orientation:                         
 ---------------------------------------------------------------------
 Center     Atomic      Atomic             Coordinates (Angstroms)
 Number     Number       Type             X           Y           Z
 ---------------------------------------------------------------------
      1          6           0        0.100258   -0.820984    0.159748
      2          6           0        1.366818   -1.294964    0.332758
      3          6           0        1.524219    0.800953   -0.349353
      4          7           0        0.230451    0.488442   -0.269402
      5          1           0       -0.912930   -1.245511    0.250306
      6          1           0        1.717685   -2.263323    0.644088
      7          1           0        1.926658    1.751632   -0.653489
      8          7           0        2.245107   -0.270895    0.010639
      9          6           0       -0.898670    1.408739   -0.545444
     10          6           0       -1.441304    2.018445    0.739022
     11          1           0       -1.676205    0.800928   -1.015842
     12          1           0       -0.521729    2.162388   -1.240002
     13          1           0       -2.243605    2.714788    0.486924
     14          1           0       -1.874326    1.232446    1.359403
     15          1           0       -0.668374    2.560334    1.292516
     16          6           0        3.702578   -0.352286    0.040156
     17          1           0        4.035371   -0.620176    1.043028
     18          1           0        4.046412   -1.101529   -0.673457
     19          1           0        4.119826    0.616645   -0.228067
     20         17           0       -3.023593   -1.099463   -0.100905
 ---------------------------------------------------------------------
 Rotational constants (GHZ):      2.3851618      0.6888202      0.5624112

 **********************************************************************

            Population analysis using the SCF density.

 **********************************************************************

 Orbital symmetries:
       Occupied  (A) (A) (A) (A) (A) (A) (A) (A) (A) (A) (A) (A)
                 (A) (A) (A) (A) (A) (A) (A) (A) (A) (A) (A) (A)
                 (A) (A) (A) (A) (A) (A) (A) (A) (A) (A) (A) (A)
                 (A) (A) (A)
       Virtual   (A) (A) (A) (A) (A) (A) (A) (A) (A) (A) (A) (A)
                 (A) (A) (A) (A) (A) (A) (A) (A) (A) (A) (A) (A)
                 (A) (A) (A) (A) (A) (A) (A) (A) (A) (A) (A) (A)
                 (A) (A) (A) (A) (A) (A) (A) (A) (A) (A) (A) (A)
                 (A) (A) (A) (A) (A) (A) (A) (A) (A) (A) (A) (A)
                 (A) (A) (A) (A) (A) (A) (A) (A) (A) (A) (A) (A)
                 (A) (A) (A) (A) (A) (A) (A) (A) (A) (A) (A) (A)
                 (A) (A) (A) (A) (A) (A) (A) (A) (A) (A) (A) (A)
                 (A) (A) (A) (A) (A) (A) (A) (A) (A) (A) (A) (A)
                 (A) (A) (A) (A) (A) (A) (A) (A) (A) (A) (A) (A)
                 (A) (A) (A) (A) (A) (A) (A) (A) (A) (A) (A) (A)
                 (A) (A) (A) (A) (A) (A) (A) (A) (A) (A) (A) (A)
                 (A) (A) (A) (A) (A) (A) (A) (A) (A) (A) (A) (A)
                 (A) (A) (A) (A) (A) (A) (A) (A) (A) (A) (A) (A)
                 (A) (A) (A) (A) (A) (A) (A) (A) (A) (A) (A) (A)
                 (A) (A) (A) (A) (A) (A) (A) (A) (A) (A) (A) (A)
                 (A) (A) (A) (A) (A) (A) (A) (A) (A) (A) (A) (A)
                 (A) (A) (A) (A) (A) (A) (A) (A) (A) (A) (A) (A)
                 (A) (A) (A) (A) (A) (A) (A) (A) (A) (A) (A) (A)
                 (A) (A) (A) (A) (A)
 The electronic state is 1-A.
 Alpha  occ. eigenvalues -- -101.37879 -14.45189 -14.43454 -10.31070 -10.27901
 Alpha  occ. eigenvalues --  -10.25622 -10.23894 -10.23164 -10.17218  -9.29265
 Alpha  occ. eigenvalues --   -7.05108  -7.05086  -7.05062  -1.11187  -0.99506
 Alpha  occ. eigenvalues --   -0.84162  -0.81142  -0.77017  -0.68960  -0.67059
 Alpha  occ. eigenvalues --   -0.64665  -0.63548  -0.59167  -0.54790  -0.52317
 Alpha  occ. eigenvalues --   -0.52104  -0.49727  -0.48492  -0.47926  -0.45783
 Alpha  occ. eigenvalues --   -0.45463  -0.41837  -0.39109  -0.37203  -0.34070
 Alpha  occ. eigenvalues --   -0.30154  -0.18448  -0.18236  -0.18067
 Alpha virt. eigenvalues --   -0.06832  -0.03915  -0.02032  -0.01598  -0.00207
 Alpha virt. eigenvalues --    0.00724   0.01168   0.01355   0.02804   0.03711
 Alpha virt. eigenvalues --    0.04477   0.05791   0.06319   0.06623   0.07268
 Alpha virt. eigenvalues --    0.08410   0.09111   0.09410   0.09956   0.10402
 Alpha virt. eigenvalues --    0.11390   0.12046   0.12619   0.13376   0.13933
 Alpha virt. eigenvalues --    0.14291   0.14845   0.15282   0.15655   0.16337
 Alpha virt. eigenvalues --    0.16700   0.17039   0.17708   0.17944   0.18663
 Alpha virt. eigenvalues --    0.19040   0.19471   0.20047   0.20808   0.21965
 Alpha virt. eigenvalues --    0.22780   0.23484   0.23927   0.24121   0.24349
 Alpha virt. eigenvalues --    0.25684   0.25907   0.27663   0.28118   0.28874
 Alpha virt. eigenvalues --    0.29505   0.30774   0.35817   0.36535   0.37073
 Alpha virt. eigenvalues --    0.38236   0.38938   0.39749   0.42090   0.42798
 Alpha virt. eigenvalues --    0.44781   0.47238   0.48140   0.49267   0.51975
 Alpha virt. eigenvalues --    0.52874   0.53978   0.54609   0.55226   0.55622
 Alpha virt. eigenvalues --    0.57693   0.57802   0.58253   0.59280   0.61693
 Alpha virt. eigenvalues --    0.62422   0.63119   0.63300   0.65552   0.65890
 Alpha virt. eigenvalues --    0.67046   0.67460   0.68004   0.70128   0.71319
 Alpha virt. eigenvalues --    0.72499   0.74462   0.76301   0.77621   0.79023
 Alpha virt. eigenvalues --    0.81701   0.84370   0.86250   0.89777   0.90240
 Alpha virt. eigenvalues --    0.93130   0.93954   0.94692   0.98936   0.99810
 Alpha virt. eigenvalues --    1.01561   1.02622   1.03336   1.04305   1.05279
 Alpha virt. eigenvalues --    1.06558   1.08607   1.09774   1.11494   1.13499
 Alpha virt. eigenvalues --    1.17722   1.22892   1.26325   1.26831   1.29199
 Alpha virt. eigenvalues --    1.32166   1.35398   1.36301   1.38395   1.41257
 Alpha virt. eigenvalues --    1.44636   1.46887   1.47819   1.48694   1.51055
 Alpha virt. eigenvalues --    1.53924   1.54965   1.55883   1.57273   1.57382
 Alpha virt. eigenvalues --    1.58717   1.59408   1.59972   1.61979   1.63759
 Alpha virt. eigenvalues --    1.66962   1.69092   1.69786   1.73712   1.74714
 Alpha virt. eigenvalues --    1.76053   1.76900   1.77825   1.78424   1.82521
 Alpha virt. eigenvalues --    1.84187   1.90101   1.93214   1.96808   1.99809
 Alpha virt. eigenvalues --    2.01003   2.05184   2.06687   2.08758   2.10531
 Alpha virt. eigenvalues --    2.13666   2.16140   2.18999   2.23418   2.25326
 Alpha virt. eigenvalues --    2.29114   2.30458   2.34201   2.36676   2.40154
 Alpha virt. eigenvalues --    2.40519   2.40893   2.43929   2.44848   2.45670
 Alpha virt. eigenvalues --    2.46799   2.48094   2.48730   2.50369   2.51797
 Alpha virt. eigenvalues --    2.54150   2.56424   2.57434   2.58807   2.58978
 Alpha virt. eigenvalues --    2.60128   2.62824   2.65239   2.65385   2.69324
 Alpha virt. eigenvalues --    2.71981   2.73472   2.76018   2.77124   2.81486
 Alpha virt. eigenvalues --    2.83639   2.85713   2.88105   2.91820   2.92671
 Alpha virt. eigenvalues --    2.95165   2.96092   3.07924   3.18803   3.26466
 Alpha virt. eigenvalues --    3.36535   3.52793   3.55217   3.60343   3.64333
 Alpha virt. eigenvalues --    3.67696   3.70111   3.77538   3.78290   3.82656
 Alpha virt. eigenvalues --    3.84597   3.86153   3.87152   3.87966   4.07026
 Alpha virt. eigenvalues --    4.21217   4.68291   4.88699   4.92130   5.21965
 Alpha virt. eigenvalues --    9.84945  23.70628  23.83995  23.85167  23.86865
 Alpha virt. eigenvalues --   23.96911  24.14731  25.98261  26.04401  26.16981
 Alpha virt. eigenvalues --   35.41170  35.56586 215.83101
          Condensed to atoms (all electrons):
               1          2          3          4          5          6
     1  C    7.915865  -2.212203   0.058973  -0.413499   0.439535  -0.015525
     2  C   -2.212203   7.974970  -0.241633   0.732319  -0.157703   0.429873
     3  C    0.058973  -0.241633   5.266949   0.396058   0.021327   0.010609
     4  N   -0.413499   0.732319   0.396058   7.087704  -0.062241   0.025729
     5  H    0.439535  -0.157703   0.021327  -0.062241   0.441773  -0.002167
     6  H   -0.015525   0.429873   0.010609   0.025729  -0.002167   0.480229
     7  H    0.036948  -0.021479   0.436951  -0.034563   0.000223  -0.000036
     8  N    0.776523  -0.447443   0.433246  -0.560472   0.033287  -0.077056
     9  C   -1.074108   0.651652  -0.213410  -0.020863  -0.019183  -0.001428
    10  C    0.129538  -0.032139   0.005038   0.014325   0.001421   0.000078
    11  H    0.017398  -0.009036   0.005179  -0.021937  -0.007825   0.000055
    12  H    0.056203  -0.031297   0.029897  -0.033931   0.000222   0.000028
    13  H    0.001442   0.000921   0.002725   0.025207   0.000065  -0.000001
    14  H    0.012004  -0.003533  -0.002777  -0.013571   0.000625   0.000013
    15  H   -0.011883   0.002251  -0.000787  -0.017862  -0.000479   0.000006
    16  C    0.237340  -0.309641  -0.145723  -0.085083   0.000436  -0.010130
    17  H    0.011238  -0.012428  -0.013784  -0.008046   0.000009  -0.000490
    18  H    0.011316  -0.014494  -0.017029  -0.005011   0.000012  -0.000454
    19  H   -0.001372   0.000380   0.028669   0.010455  -0.000001  -0.000037
    20  Cl   0.088378  -0.123287   0.037111   0.058349   0.112042   0.000619
               7          8          9         10         11         12
     1  C    0.036948   0.776523  -1.074108   0.129538   0.017398   0.056203
     2  C   -0.021479  -0.447443   0.651652  -0.032139  -0.009036  -0.031297
     3  C    0.436951   0.433246  -0.213410   0.005038   0.005179   0.029897
     4  N   -0.034563  -0.560472  -0.020863   0.014325  -0.021937  -0.033931
     5  H    0.000223   0.033287  -0.019183   0.001421  -0.007825   0.000222
     6  H   -0.000036  -0.077056  -0.001428   0.000078   0.000055   0.000028
     7  H    0.478874  -0.046614  -0.009255   0.005834   0.000213   0.000755
     8  N   -0.046614   6.918764  -0.236092   0.005174  -0.005216   0.018787
     9  C   -0.009255  -0.236092   7.417100  -0.622759   0.356958   0.257184
    10  C    0.005834   0.005174  -0.622759   5.689010  -0.010372   0.009607
    11  H    0.000213  -0.005216   0.356958  -0.010372   0.424628  -0.020250
    12  H    0.000755   0.018787   0.257184   0.009607  -0.020250   0.580869
    13  H   -0.000023  -0.000192  -0.098960   0.447813  -0.003736  -0.002884
    14  H   -0.000011   0.004384  -0.036578   0.425149  -0.008404   0.006578
    15  H   -0.000198  -0.004330   0.065075   0.331851   0.005599  -0.009431
    16  C   -0.005800   0.319803  -0.096057   0.018156   0.000641   0.005506
    17  H   -0.000076  -0.035289  -0.000553  -0.000277  -0.000003  -0.000001
    18  H   -0.000064  -0.033180  -0.000151  -0.000247  -0.000006  -0.000004
    19  H    0.001514  -0.048460   0.003396  -0.000165  -0.000002   0.000006
    20  Cl   0.000328   0.020008  -0.248033   0.019940   0.043833   0.005505
              13         14         15         16         17         18
     1  C    0.001442   0.012004  -0.011883   0.237340   0.011238   0.011316
     2  C    0.000921  -0.003533   0.002251  -0.309641  -0.012428  -0.014494
     3  C    0.002725  -0.002777  -0.000787  -0.145723  -0.013784  -0.017029
     4  N    0.025207  -0.013571  -0.017862  -0.085083  -0.008046  -0.005011
     5  H    0.000065   0.000625  -0.000479   0.000436   0.000009   0.000012
     6  H   -0.000001   0.000013   0.000006  -0.010130  -0.000490  -0.000454
     7  H   -0.000023  -0.000011  -0.000198  -0.005800  -0.000076  -0.000064
     8  N   -0.000192   0.004384  -0.004330   0.319803  -0.035289  -0.033180
     9  C   -0.098960  -0.036578   0.065075  -0.096057  -0.000553  -0.000151
    10  C    0.447813   0.425149   0.331851   0.018156  -0.000277  -0.000247
    11  H   -0.003736  -0.008404   0.005599   0.000641  -0.000003  -0.000006
    12  H   -0.002884   0.006578  -0.009431   0.005506  -0.000001  -0.000004
    13  H    0.514035  -0.014634  -0.031154   0.000060   0.000000   0.000000
    14  H   -0.014634   0.445282  -0.031029   0.000624  -0.000001   0.000001
    15  H   -0.031154  -0.031029   0.591093  -0.001314   0.000002   0.000001
    16  C    0.000060   0.000624  -0.001314   5.042676   0.425124   0.425548
    17  H    0.000000  -0.000001   0.000002   0.425124   0.501650  -0.033512
    18  H    0.000000   0.000001   0.000001   0.425548  -0.033512   0.496198
    19  H    0.000000   0.000001   0.000005   0.379378  -0.022043  -0.022458
    20  Cl  -0.000451   0.005743  -0.000306   0.003929   0.000002   0.000003
              19         20
     1  C   -0.001372   0.088378
     2  C    0.000380  -0.123287
     3  C    0.028669   0.037111
     4  N    0.010455   0.058349
     5  H   -0.000001   0.112042
     6  H   -0.000037   0.000619
     7  H    0.001514   0.000328
     8  N   -0.048460   0.020008
     9  C    0.003396  -0.248033
    10  C   -0.000165   0.019940
    11  H   -0.000002   0.043833
    12  H    0.000006   0.005505
    13  H    0.000000  -0.000451
    14  H    0.000001   0.005743
    15  H    0.000005  -0.000306
    16  C    0.379378   0.003929
    17  H   -0.022043   0.000002
    18  H   -0.022458   0.000003
    19  H    0.509208  -0.000001
    20  Cl  -0.000001  17.713896
 Mulliken charges:
               1
     1  C   -0.064110
     2  C   -0.176051
     3  C   -0.097590
     4  N   -0.073067
     5  H    0.198623
     6  H    0.160084
     7  H    0.156474
     8  N   -0.035634
     9  C   -0.073936
    10  C   -0.436974
    11  H    0.232283
    12  H    0.126651
    13  H    0.159766
    14  H    0.210135
    15  H    0.112889
    16  C   -0.205473
    17  H    0.188475
    18  H    0.193530
    19  H    0.161529
    20  Cl  -0.737606
 Sum of Mulliken charges =   0.00000
 Mulliken charges with hydrogens summed into heavy atoms:
               1
     1  C    0.134513
     2  C   -0.015967
     3  C    0.058885
     4  N   -0.073067
     8  N   -0.035634
     9  C    0.284998
    10  C    0.045816
    16  C    0.338062
    20  Cl  -0.737606
 Electronic spatial extent (au):  <R**2>=           1976.4916
 Charge=              0.0000 electrons
 Dipole moment (field-independent basis, Debye):
    X=             15.4609    Y=              4.8536    Z=             -0.0297  Tot=             16.2049
 Quadrupole moment (field-independent basis, Debye-Ang):
   XX=            -76.2719   YY=            -60.8567   ZZ=            -64.7687
   XY=            -15.6697   XZ=             -1.2477   YZ=             -3.5202
 Traceless Quadrupole moment (field-independent basis, Debye-Ang):
   XX=             -8.9728   YY=              6.4424   ZZ=              2.5304
   XY=            -15.6697   XZ=             -1.2477   YZ=             -3.5202
 Octapole moment (field-independent basis, Debye-Ang**2):
  XXX=            193.9707  YYY=             11.8771  ZZZ=             -0.6658  XYY=             29.6432
  XXY=             40.0573  XXZ=              3.5413  XZZ=              8.7631  YZZ=              3.5841
  YYZ=             -0.2447  XYZ=             -1.7930
 Hexadecapole moment (field-independent basis, Debye-Ang**3):
 XXXX=          -2061.3537 YYYY=           -597.7924 ZZZZ=           -155.1180 XXXY=           -164.4755
 XXXZ=            -11.2451 YYYX=            -48.4993 YYYZ=            -18.3936 ZZZX=              0.6049
 ZZZY=             -3.6483 XXYY=           -442.7519 XXZZ=           -354.1141 YYZZ=           -127.0881
 XXYZ=            -12.5407 YYXZ=             -2.5456 ZZXY=            -10.1442
 N-N= 5.138046265823D+02 E-N=-2.922077698265D+03  KE= 8.024378828230D+02
 1\1\GINC-CX1-9-16-3\FOpt\RB3LYP\6-311+G(d,p)\C6H11Cl1N2\CJS14\17-Apr-2
 015\0\\# opt=modredundant b3lyp/6-311+g(d,p) geom=checkpoint integral=
 grid=ultrafine scf=conver=9 empiricaldispersion=gd3bj\\Emim+ (optimise
 d with b3lyp+gd3bj / aug-cc-pvtz) and Cl- in the back-ethyl position c
 reated on; Thu Apr 16 19:11:51 BST 2015, from; CJS1_emim-cl_BE_init.co
 m created on; Fri Apr 17 20:54:15 BST 2015, from; CJS1_emim-cl_BE_6-31
 1+g-d-p-_gd3bj_opt-modredundant_difrz.com\\0,1\C,-0.2705640024,1.69285
 88793,-0.1083449253\C,-1.6112168417,1.6223541194,0.129226809\C,-0.8672
 736725,-0.442837869,-0.1246420064\N,0.1654222864,0.3887099753,-0.26591
 38963\H,0.4612155606,2.50882011,-0.225310072\H,-2.3366379928,2.3994551
 58,0.2954581492\H,-0.8278770326,-1.5161274789,-0.1935124044\N,-1.96927
 45676,0.2823979701,0.1156915103\C,1.5722308867,-0.0144178738,-0.503481
 2028\C,2.3661136557,-0.0411846557,0.7946249538\H,1.9944327125,0.740601
 5414,-1.1720311992\H,1.5368022849,-0.9900275588,-0.992779523\H,3.38230
 69239,-0.3774616447,0.5792105942\H,2.4356815276,0.9698142161,1.1986253
 168\H,1.9221715036,-0.7177081473,1.5312738487\C,-3.3165006253,-0.24558
 56113,0.3104538031\H,-3.7002272447,0.0748562034,1.2791325471\H,-3.9734
 708814,0.1136679261,-0.4821099818\H,-3.2813915134,-1.3331586432,0.2818
 305365\Cl,2.4145665625,3.1800963534,-0.8027039176\\Version=ES64L-G09Re
 vD.01\State=1-A\HF=-805.10526\RMSD=3.451e-10\RMSF=2.071e-05\Dipole=-4.
 6530831,-4.2169706,1.1013306\Quadrupole=4.5559116,-4.6885054,0.1325938
 ,-11.4516619,2.2157184,4.6366116\PG=C01 [X(C6H11Cl1N2)]\\@


 KINETICS       FACT
 ---------  =  -------
 MECHANISM     FICTION
 Job cpu time:       0 days  2 hours 16 minutes 25.0 seconds.
 File lengths (MBytes):  RWF=     35 Int=      0 D2E=      0 Chk=      6 Scr=      1
 Normal termination of Gaussian 09 at Fri Apr 17 21:16:38 2015.
