 Entering Gaussian System, Link 0=g09
 Input=/work/cjs14/CJS1_emim-cl_B_6-311+g-d-p-_gd3bj_opt-modredundant_unfrz.com
 Output=/work/cjs14/CJS1_emim-cl_B_6-311+g-d-p-_gd3bj_opt-modredundant_unfrz.log
 Initial command:
 /apps/gaussian/g09_d01/g09/l1.exe /tmp/pbs.9403241.cx1b/Gau-604.inp -scrdir=/tmp/pbs.9403241.cx1b/
 Entering Link 1 = /apps/gaussian/g09_d01/g09/l1.exe PID=       605.
  
 Copyright (c) 1988,1990,1992,1993,1995,1998,2003,2009,2013,
            Gaussian, Inc.  All Rights Reserved.
  
 This is part of the Gaussian(R) 09 program.  It is based on
 the Gaussian(R) 03 system (copyright 2003, Gaussian, Inc.),
 the Gaussian(R) 98 system (copyright 1998, Gaussian, Inc.),
 the Gaussian(R) 94 system (copyright 1995, Gaussian, Inc.),
 the Gaussian 92(TM) system (copyright 1992, Gaussian, Inc.),
 the Gaussian 90(TM) system (copyright 1990, Gaussian, Inc.),
 the Gaussian 88(TM) system (copyright 1988, Gaussian, Inc.),
 the Gaussian 86(TM) system (copyright 1986, Carnegie Mellon
 University), and the Gaussian 82(TM) system (copyright 1983,
 Carnegie Mellon University). Gaussian is a federally registered
 trademark of Gaussian, Inc.
  
 This software contains proprietary and confidential information,
 including trade secrets, belonging to Gaussian, Inc.
  
 This software is provided under written license and may be
 used, copied, transmitted, or stored only in accord with that
 written license.
  
 The following legend is applicable only to US Government
 contracts under FAR:
  
                    RESTRICTED RIGHTS LEGEND
  
 Use, reproduction and disclosure by the US Government is
 subject to restrictions as set forth in subparagraphs (a)
 and (c) of the Commercial Computer Software - Restricted
 Rights clause in FAR 52.227-19.
  
 Gaussian, Inc.
 340 Quinnipiac St., Bldg. 40, Wallingford CT 06492
  
  
 ---------------------------------------------------------------
 Warning -- This program may not be used in any manner that
 competes with the business of Gaussian, Inc. or will provide
 assistance to any competitor of Gaussian, Inc.  The licensee
 of this program is prohibited from giving any competitor of
 Gaussian, Inc. access to this program.  By using this program,
 the user acknowledges that Gaussian, Inc. is engaged in the
 business of creating and licensing software in the field of
 computational chemistry and represents and warrants to the
 licensee that it is not a competitor of Gaussian, Inc. and that
 it will not use this program in any manner prohibited above.
 ---------------------------------------------------------------
  

 Cite this work as:
 Gaussian 09, Revision D.01,
 M. J. Frisch, G. W. Trucks, H. B. Schlegel, G. E. Scuseria, 
 M. A. Robb, J. R. Cheeseman, G. Scalmani, V. Barone, B. Mennucci, 
 G. A. Petersson, H. Nakatsuji, M. Caricato, X. Li, H. P. Hratchian, 
 A. F. Izmaylov, J. Bloino, G. Zheng, J. L. Sonnenberg, M. Hada, 
 M. Ehara, K. Toyota, R. Fukuda, J. Hasegawa, M. Ishida, T. Nakajima, 
 Y. Honda, O. Kitao, H. Nakai, T. Vreven, J. A. Montgomery, Jr., 
 J. E. Peralta, F. Ogliaro, M. Bearpark, J. J. Heyd, E. Brothers, 
 K. N. Kudin, V. N. Staroverov, T. Keith, R. Kobayashi, J. Normand, 
 K. Raghavachari, A. Rendell, J. C. Burant, S. S. Iyengar, J. Tomasi, 
 M. Cossi, N. Rega, J. M. Millam, M. Klene, J. E. Knox, J. B. Cross, 
 V. Bakken, C. Adamo, J. Jaramillo, R. Gomperts, R. E. Stratmann, 
 O. Yazyev, A. J. Austin, R. Cammi, C. Pomelli, J. W. Ochterski, 
 R. L. Martin, K. Morokuma, V. G. Zakrzewski, G. A. Voth, 
 P. Salvador, J. J. Dannenberg, S. Dapprich, A. D. Daniels, 
 O. Farkas, J. B. Foresman, J. V. Ortiz, J. Cioslowski, 
 and D. J. Fox, Gaussian, Inc., Wallingford CT, 2013.
 
 ******************************************
 Gaussian 09:  ES64L-G09RevD.01 24-Apr-2013
                19-Apr-2015 
 ******************************************
 %nprocshared=8
 Will use up to    8 processors via shared memory.
 %mem=15000MB
 %chk=CJS1_emim-cl_B_6-311+g-d-p-_gd3bj_opt-modredundant_unfrz.chk
 ----------------------------------------------------------------------
 # opt=modredundant b3lyp/6-311+g(d,p) geom=checkpoint integral=grid=ul
 trafine scf=conver=9 empiricaldispersion=gd3bj
 ----------------------------------------------------------------------
 1/14=-1,18=120,19=15,26=4,29=2,38=1/1,3;
 2/9=110,12=2,40=1/2;
 3/5=4,6=6,7=111,11=2,14=-4,16=1,25=1,30=1,71=1,74=-5,75=-5,124=41/1,2,3;
 4//1;
 5/5=2,6=9,38=5/2;
 6/7=2,8=2,9=2,10=2,28=1/1;
 7//1,2,3,16;
 1/14=-1,18=20,19=15,26=4/3(2);
 2/9=110/2;
 99//99;
 2/9=110/2;
 3/5=4,6=6,7=111,11=2,14=-2,16=1,25=1,30=1,71=1,74=-5,75=-5,124=41/1,2,3;
 4/5=5,16=3,69=1/1;
 5/5=2,6=9,38=5/2;
 7//1,2,3,16;
 1/14=-1,18=20,19=15,26=4/3(-5);
 2/9=110/2;
 6/7=2,8=2,9=2,10=2,19=2,28=1/1;
 99/9=1/99;
 ----------------------------------------------------------------------
 Emim+ (optimised with b3lyp+gd3bj / aug-cc-pvtz) and Cl- in the back p
 osition created on; Thu Apr 16 19:11:52 BST 2015, from; CJS1_emim-cl_B
 _init.com created on; Sun Apr 19 10:11:24 BST 2015, from; CJS1_emim-cl
 _B_6-311+g-d-p-_gd3bj_opt-modredundant_difrz_err.com
 ----------------------------------------------------------------------
 Structure from the checkpoint file:  "CJS1_emim-cl_B_6-311+g-d-p-_gd3bj_opt-modredundant_unfrz.chk"
 Charge =  0 Multiplicity = 1
 Redundant internal coordinates found in file.
 C,0,-0.0142133015,0.7739730434,-0.1819604529
 C,0,-1.2110181488,1.3856225831,0.0470291291
 C,0,-1.5960560271,-0.7801618361,-0.162970057
 N,0,-0.2867197541,-0.5766396941,-0.3132281441
 H,0,1.0316770788,1.1103674831,-0.2771170294
 H,0,-1.4520251284,2.4233354689,0.1980354625
 H,0,-2.0972506065,-1.7313080717,-0.2124111425
 N,0,-2.1892791894,0.4022093197,0.0555562045
 C,0,0.7313863419,-1.6352500144,-0.5183731124
 C,0,1.3248962287,-2.0942199004,0.8057868904
 H,0,1.5165675354,-1.1843499718,-1.1304078646
 H,0,0.2350739922,-2.444262962,-1.0585154155
 H,0,2.0411711501,-2.8952527888,0.6122686345
 H,0,1.8727426506,-1.2687262433,1.2623439559
 H,0,0.5574828598,-2.4692612101,1.4899502605
 C,0,-3.6199745856,0.6199557369,0.2488791823
 H,0,-3.7898701119,1.1152875718,1.2049145834
 H,0,-4.0139249085,1.236545711,-0.5595094325
 H,0,-4.1307419213,-0.3412921829,0.2488048213
 Cl,0,3.1029127627,0.6860806344,-0.6088323083
 Recover connectivity data from disk.
 The following ModRedundant input section has been read:
 D      20       3       4       1 A                                           
 

 GradGradGradGradGradGradGradGradGradGradGradGradGradGradGradGradGradGrad
 Berny optimization.
 Initialization pass.
                           ----------------------------
                           !    Initial Parameters    !
                           ! (Angstroms and Degrees)  !
 --------------------------                            --------------------------
 ! Name  Definition              Value          Derivative Info.                !
 --------------------------------------------------------------------------------
 ! R1    R(1,2)                  1.3634         estimate D2E/DX2                !
 ! R2    R(1,4)                  1.3841         estimate D2E/DX2                !
 ! R3    R(1,5)                  1.1028         estimate D2E/DX2                !
 ! R4    R(2,6)                  1.076          estimate D2E/DX2                !
 ! R5    R(2,8)                  1.3871         estimate D2E/DX2                !
 ! R6    R(3,4)                  1.3336         estimate D2E/DX2                !
 ! R7    R(3,7)                  1.0763         estimate D2E/DX2                !
 ! R8    R(3,8)                  1.3408         estimate D2E/DX2                !
 ! R9    R(4,9)                  1.483          estimate D2E/DX2                !
 ! R10   R(5,20)                 2.1401         estimate D2E/DX2                !
 ! R11   R(6,20)                 4.9413         estimate D2E/DX2                !
 ! R12   R(8,16)                 1.46           estimate D2E/DX2                !
 ! R13   R(9,10)                 1.5219         estimate D2E/DX2                !
 ! R14   R(9,11)                 1.0929         estimate D2E/DX2                !
 ! R15   R(9,12)                 1.0921         estimate D2E/DX2                !
 ! R16   R(10,13)                1.0919         estimate D2E/DX2                !
 ! R17   R(10,14)                1.0909         estimate D2E/DX2                !
 ! R18   R(10,15)                1.0944         estimate D2E/DX2                !
 ! R19   R(16,17)                1.0901         estimate D2E/DX2                !
 ! R20   R(16,18)                1.0904         estimate D2E/DX2                !
 ! R21   R(16,19)                1.0885         estimate D2E/DX2                !
 ! A1    A(2,1,4)              106.3123         estimate D2E/DX2                !
 ! A2    A(2,1,5)              135.2487         estimate D2E/DX2                !
 ! A3    A(4,1,5)              118.4388         estimate D2E/DX2                !
 ! A4    A(1,2,6)              130.7568         estimate D2E/DX2                !
 ! A5    A(1,2,8)              107.5803         estimate D2E/DX2                !
 ! A6    A(6,2,8)              121.662          estimate D2E/DX2                !
 ! A7    A(4,3,7)              125.9394         estimate D2E/DX2                !
 ! A8    A(4,3,8)              108.5537         estimate D2E/DX2                !
 ! A9    A(7,3,8)              125.5064         estimate D2E/DX2                !
 ! A10   A(1,4,3)              109.3631         estimate D2E/DX2                !
 ! A11   A(1,4,9)              125.0667         estimate D2E/DX2                !
 ! A12   A(3,4,9)              125.4996         estimate D2E/DX2                !
 ! A13   A(2,6,20)              55.3568         estimate D2E/DX2                !
 ! A14   A(2,8,3)              108.1895         estimate D2E/DX2                !
 ! A15   A(2,8,16)             125.8842         estimate D2E/DX2                !
 ! A16   A(3,8,16)             125.9204         estimate D2E/DX2                !
 ! A17   A(4,9,10)             111.2622         estimate D2E/DX2                !
 ! A18   A(4,9,11)             106.0326         estimate D2E/DX2                !
 ! A19   A(4,9,12)             106.5728         estimate D2E/DX2                !
 ! A20   A(10,9,11)            109.3591         estimate D2E/DX2                !
 ! A21   A(10,9,12)            112.5915         estimate D2E/DX2                !
 ! A22   A(11,9,12)            110.8039         estimate D2E/DX2                !
 ! A23   A(9,10,13)            108.8362         estimate D2E/DX2                !
 ! A24   A(9,10,14)            109.3765         estimate D2E/DX2                !
 ! A25   A(9,10,15)            111.9507         estimate D2E/DX2                !
 ! A26   A(13,10,14)           107.4508         estimate D2E/DX2                !
 ! A27   A(13,10,15)           108.6269         estimate D2E/DX2                !
 ! A28   A(14,10,15)           110.478          estimate D2E/DX2                !
 ! A29   A(8,16,17)            109.6717         estimate D2E/DX2                !
 ! A30   A(8,16,18)            109.8899         estimate D2E/DX2                !
 ! A31   A(8,16,19)            109.1531         estimate D2E/DX2                !
 ! A32   A(17,16,18)           109.6922         estimate D2E/DX2                !
 ! A33   A(17,16,19)           109.1598         estimate D2E/DX2                !
 ! A34   A(18,16,19)           109.256          estimate D2E/DX2                !
 ! A35   A(5,20,6)               9.1939         estimate D2E/DX2                !
 ! A36   L(1,5,20,10,-1)       153.7119         estimate D2E/DX2                !
 ! A37   L(1,5,20,10,-2)       166.6085         estimate D2E/DX2                !
 ! D1    D(4,1,2,6)           -179.4679         estimate D2E/DX2                !
 ! D2    D(4,1,2,8)              0.1689         estimate D2E/DX2                !
 ! D3    D(5,1,2,6)              0.3684         estimate D2E/DX2                !
 ! D4    D(5,1,2,8)           -179.9949         estimate D2E/DX2                !
 ! D5    D(2,1,4,3)             -0.3213         estimate D2E/DX2                !
 ! D6    D(2,1,4,9)           -177.4004         estimate D2E/DX2                !
 ! D7    D(5,1,4,3)            179.8098         estimate D2E/DX2                !
 ! D8    D(5,1,4,9)              2.7307         estimate D2E/DX2                !
 ! D9    D(2,1,20,6)             0.0656         estimate D2E/DX2                !
 ! D10   D(4,1,20,6)           179.4221         estimate D2E/DX2                !
 ! D11   D(1,2,6,20)             0.043          estimate D2E/DX2                !
 ! D12   D(8,2,6,20)          -179.5502         estimate D2E/DX2                !
 ! D13   D(1,2,8,3)              0.0382         estimate D2E/DX2                !
 ! D14   D(1,2,8,16)          -179.1137         estimate D2E/DX2                !
 ! D15   D(6,2,8,3)            179.7149         estimate D2E/DX2                !
 ! D16   D(6,2,8,16)             0.563          estimate D2E/DX2                !
 ! D17   D(7,3,4,1)           -179.9007         estimate D2E/DX2                !
 ! D18   D(7,3,4,9)             -2.8373         estimate D2E/DX2                !
 ! D19   D(8,3,4,1)              0.3507         estimate D2E/DX2                !
 ! D20   D(8,3,4,9)            177.4141         estimate D2E/DX2                !
 ! D21   D(20,3,4,1)            -0.1507         estimate D2E/DX2                !
 ! D22   D(4,3,8,2)             -0.24           estimate D2E/DX2                !
 ! D23   D(4,3,8,16)           178.9115         estimate D2E/DX2                !
 ! D24   D(7,3,8,2)           -179.99           estimate D2E/DX2                !
 ! D25   D(7,3,8,16)            -0.8385         estimate D2E/DX2                !
 ! D26   D(1,4,9,10)            84.4808         estimate D2E/DX2                !
 ! D27   D(1,4,9,11)           -34.3297         estimate D2E/DX2                !
 ! D28   D(1,4,9,12)          -152.434          estimate D2E/DX2                !
 ! D29   D(3,4,9,10)           -92.1338         estimate D2E/DX2                !
 ! D30   D(3,4,9,11)           149.0557         estimate D2E/DX2                !
 ! D31   D(3,4,9,12)            30.9514         estimate D2E/DX2                !
 ! D32   D(2,6,20,5)            -1.1045         estimate D2E/DX2                !
 ! D33   D(2,8,16,17)          -58.0112         estimate D2E/DX2                !
 ! D34   D(2,8,16,18)           62.6455         estimate D2E/DX2                !
 ! D35   D(2,8,16,19)         -177.558          estimate D2E/DX2                !
 ! D36   D(3,8,16,17)          122.9838         estimate D2E/DX2                !
 ! D37   D(3,8,16,18)         -116.3595         estimate D2E/DX2                !
 ! D38   D(3,8,16,19)            3.437          estimate D2E/DX2                !
 ! D39   D(4,9,10,13)          178.0285         estimate D2E/DX2                !
 ! D40   D(4,9,10,14)          -64.8515         estimate D2E/DX2                !
 ! D41   D(4,9,10,15)           57.9398         estimate D2E/DX2                !
 ! D42   D(11,9,10,13)         -65.1741         estimate D2E/DX2                !
 ! D43   D(11,9,10,14)          51.9459         estimate D2E/DX2                !
 ! D44   D(11,9,10,15)         174.7372         estimate D2E/DX2                !
 ! D45   D(12,9,10,13)          58.4634         estimate D2E/DX2                !
 ! D46   D(12,9,10,14)         175.5833         estimate D2E/DX2                !
 ! D47   D(12,9,10,15)         -61.6254         estimate D2E/DX2                !
 --------------------------------------------------------------------------------
 Trust Radius=3.00D-01 FncErr=1.00D-07 GrdErr=1.00D-06
 Number of steps in this run=    115 maximum allowed number of steps=    120.
 GradGradGradGradGradGradGradGradGradGradGradGradGradGradGradGradGradGrad

                          Input orientation:                          
 ---------------------------------------------------------------------
 Center     Atomic      Atomic             Coordinates (Angstroms)
 Number     Number       Type             X           Y           Z
 ---------------------------------------------------------------------
      1          6           0       -0.014213    0.773973   -0.181960
      2          6           0       -1.211018    1.385623    0.047029
      3          6           0       -1.596056   -0.780162   -0.162970
      4          7           0       -0.286720   -0.576640   -0.313228
      5          1           0        1.031677    1.110367   -0.277117
      6          1           0       -1.452025    2.423335    0.198035
      7          1           0       -2.097251   -1.731308   -0.212411
      8          7           0       -2.189279    0.402209    0.055556
      9          6           0        0.731386   -1.635250   -0.518373
     10          6           0        1.324896   -2.094220    0.805787
     11          1           0        1.516568   -1.184350   -1.130408
     12          1           0        0.235074   -2.444263   -1.058515
     13          1           0        2.041171   -2.895253    0.612269
     14          1           0        1.872743   -1.268726    1.262344
     15          1           0        0.557483   -2.469261    1.489950
     16          6           0       -3.619975    0.619956    0.248879
     17          1           0       -3.789870    1.115288    1.204915
     18          1           0       -4.013925    1.236546   -0.559509
     19          1           0       -4.130742   -0.341292    0.248805
     20         17           0        3.102913    0.686081   -0.608832
 ---------------------------------------------------------------------
                    Distance matrix (angstroms):
                    1          2          3          4          5
     1  C    0.000000
     2  C    1.363412   0.000000
     3  C    2.217639   2.209746   0.000000
     4  N    1.384069   2.198769   1.333552   0.000000
     5  H    1.102770   2.282656   3.239153   2.141370   0.000000
     6  H    2.220832   1.075981   3.226990   3.258708   2.849286
     7  H    3.258283   3.250842   1.076253   2.149755   4.227233
     8  N    2.219354   1.387144   1.340772   2.171147   3.314622
     9  C    2.544297   3.635696   2.504890   1.482997   2.772507
    10  C    3.315930   4.372171   3.346222   2.480434   3.395297
    11  H    2.660427   3.928211   3.284468   2.070976   2.495787
    12  H    3.344777   4.240452   2.631401   2.077436   3.725662
    13  H    4.280026   5.405749   4.278321   3.413442   4.225527
    14  H    3.133566   4.246427   3.781902   2.761284   2.955912
    15  H    3.693331   4.479927   3.197332   2.747025   4.020091
    16  C    3.634674   2.535756   2.495235   3.585860   4.706914
    17  H    4.036769   2.839764   3.205723   4.176055   5.044181
    18  H    4.044034   2.871654   3.173396   4.152151   5.055073
    19  H    4.286628   3.398196   2.605148   3.892014   5.388365
    20  Cl   3.147447   4.419221   4.942567   3.629250   2.140110
                    6          7          8          9         10
     6  H    0.000000
     7  H    4.224434   0.000000
     8  N    2.156106   2.152248   0.000000
     9  C    4.663973   2.846757   3.607066   0.000000
    10  C    5.337505   3.588805   4.375435   1.521942   0.000000
    11  H    4.857232   3.768496   4.202021   1.092889   2.147895
    12  H    5.302710   2.581460   3.901416   1.092054   2.187662
    13  H    6.376628   4.377373   5.392578   2.140442   1.091857
    14  H    5.081157   4.260250   4.555039   2.146622   1.090880
    15  H    5.444692   3.238861   4.224634   2.181554   1.094376
    16  C    2.820420   2.839000   1.460026   4.960743   5.668213
    17  H    2.861872   3.602344   2.095566   5.565693   6.051535
    18  H    2.923299   3.549968   2.098513   5.546790   6.439025
    19  H    3.849840   2.505983   2.087922   5.089517   5.757341
    20  Cl   4.941310   5.748271   5.341282   3.319774   3.590621
                   11         12         13         14         15
    11  H    0.000000
    12  H    1.798548   0.000000
    13  H    2.497863   2.501379   0.000000
    14  H    2.420587   3.074123   1.759703   0.000000
    15  H    3.071989   2.568900   1.775704   1.795271   0.000000
    16  C    5.616228   5.095107   6.673628   5.896115   5.341785
    17  H    6.237014   5.830411   7.101880   6.144266   5.641783
    18  H    6.064075   5.643700   7.423544   6.651947   6.231457
    19  H    5.874102   5.019155   6.689345   6.158671   5.296050
    20  Cl   2.507398   4.269164   3.929928   2.972522   4.565116
                   16         17         18         19         20
    16  C    0.000000
    17  H    1.090056   0.000000
    18  H    1.090354   1.782722   0.000000
    19  H    1.088522   1.775377   1.776680   0.000000
    20  Cl   6.777703   7.140333   7.138265   7.356412   0.000000
 Stoichiometry    C6H11ClN2
 Framework group  C1[X(C6H11ClN2)]
 Deg. of freedom    54
 Full point group                 C1      NOp   1
 Largest Abelian subgroup         C1      NOp   1
 Largest concise Abelian subgroup C1      NOp   1
                         Standard orientation:                         
 ---------------------------------------------------------------------
 Center     Atomic      Atomic             Coordinates (Angstroms)
 Number     Number       Type             X           Y           Z
 ---------------------------------------------------------------------
      1          6           0       -0.100344    0.850591    0.063995
      2          6           0       -1.365050    1.319627    0.262535
      3          6           0       -1.523668   -0.806413   -0.318642
      4          7           0       -0.231356   -0.477759   -0.302023
      5          1           0        0.913332    1.279987    0.128658
      6          1           0       -1.715403    2.296279    0.547385
      7          1           0       -1.926399   -1.773465   -0.565497
      8          7           0       -2.242888    0.273493    0.019284
      9          6           0        0.896334   -1.404408   -0.564542
     10          6           0        1.412628   -2.024900    0.725705
     11          1           0        1.685800   -0.798688   -1.016487
     12          1           0        0.527872   -2.151153   -1.271075
     13          1           0        2.215619   -2.724123    0.483951
     14          1           0        1.837939   -1.244203    1.357879
     15          1           0        0.627305   -2.566393    1.262092
     16          6           0       -3.699160    0.342430    0.097996
     17          1           0       -3.998024    0.659876    1.097061
     18          1           0       -4.077527    1.049522   -0.640740
     19          1           0       -4.114742   -0.643380   -0.102883
     20         17           0        3.036440    1.081414   -0.053144
 ---------------------------------------------------------------------
 Rotational constants (GHZ):      2.3929054      0.6891638      0.5616684
 Standard basis: 6-311+G(d,p) (5D, 7F)
 There are   281 symmetry adapted cartesian basis functions of A   symmetry.
 There are   272 symmetry adapted basis functions of A   symmetry.
   272 basis functions,   429 primitive gaussians,   281 cartesian basis functions
    39 alpha electrons       39 beta electrons
       nuclear repulsion energy       513.8522579374 Hartrees.
 NAtoms=   20 NActive=   20 NUniq=   20 SFac= 1.00D+00 NAtFMM=   60 NAOKFM=F Big=F
 Integral buffers will be    131072 words long.
 Raffenetti 2 integral format.
 Two-electron integral symmetry is turned on.
 Nuclear repulsion after empirical dispersion term =      513.8198111849 Hartrees.
 One-electron integrals computed using PRISM.
 NBasis=   272 RedAO= T EigKep=  7.70D-06  NBF=   272
 NBsUse=   272 1.00D-06 EigRej= -1.00D+00 NBFU=   272
 ExpMin= 4.38D-02 ExpMax= 1.06D+05 ExpMxC= 3.62D+03 IAcc=3 IRadAn=         5 AccDes= 0.00D+00
 Harris functional with IExCor=  402 and IRadAn=       5 diagonalized for initial guess.
 HarFok:  IExCor=  402 AccDes= 0.00D+00 IRadAn=         5 IDoV= 1 UseB2=F ITyADJ=14
 ICtDFT=  3500011 ScaDFX=  1.000000  1.000000  1.000000  1.000000
 FoFCou: FMM=F IPFlag=           0 FMFlag=      100000 FMFlg1=           0
         NFxFlg=           0 DoJE=T BraDBF=F KetDBF=T FulRan=T
         wScrn=  0.000000 ICntrl=     500 IOpCl=  0 I1Cent=   200000004 NGrid=           0
         NMat0=    1 NMatS0=      1 NMatT0=    0 NMatD0=    1 NMtDS0=    0 NMtDT0=    0
 Petite list used in FoFCou.
 Keep R1 ints in memory in canonical form, NReq=700735283.
 Requested convergence on RMS density matrix=1.00D-09 within 128 cycles.
 Requested convergence on MAX density matrix=1.00D-07.
 Requested convergence on             energy=1.00D-07.
 No special actions if energy rises.
 SCF Done:  E(RB3LYP) =  -805.105217631     A.U. after   16 cycles
            NFock= 16  Conv=0.56D-09     -V/T= 2.0033

 **********************************************************************

            Population analysis using the SCF density.

 **********************************************************************

 Orbital symmetries:
       Occupied  (A) (A) (A) (A) (A) (A) (A) (A) (A) (A) (A) (A)
                 (A) (A) (A) (A) (A) (A) (A) (A) (A) (A) (A) (A)
                 (A) (A) (A) (A) (A) (A) (A) (A) (A) (A) (A) (A)
                 (A) (A) (A)
       Virtual   (A) (A) (A) (A) (A) (A) (A) (A) (A) (A) (A) (A)
                 (A) (A) (A) (A) (A) (A) (A) (A) (A) (A) (A) (A)
                 (A) (A) (A) (A) (A) (A) (A) (A) (A) (A) (A) (A)
                 (A) (A) (A) (A) (A) (A) (A) (A) (A) (A) (A) (A)
                 (A) (A) (A) (A) (A) (A) (A) (A) (A) (A) (A) (A)
                 (A) (A) (A) (A) (A) (A) (A) (A) (A) (A) (A) (A)
                 (A) (A) (A) (A) (A) (A) (A) (A) (A) (A) (A) (A)
                 (A) (A) (A) (A) (A) (A) (A) (A) (A) (A) (A) (A)
                 (A) (A) (A) (A) (A) (A) (A) (A) (A) (A) (A) (A)
                 (A) (A) (A) (A) (A) (A) (A) (A) (A) (A) (A) (A)
                 (A) (A) (A) (A) (A) (A) (A) (A) (A) (A) (A) (A)
                 (A) (A) (A) (A) (A) (A) (A) (A) (A) (A) (A) (A)
                 (A) (A) (A) (A) (A) (A) (A) (A) (A) (A) (A) (A)
                 (A) (A) (A) (A) (A) (A) (A) (A) (A) (A) (A) (A)
                 (A) (A) (A) (A) (A) (A) (A) (A) (A) (A) (A) (A)
                 (A) (A) (A) (A) (A) (A) (A) (A) (A) (A) (A) (A)
                 (A) (A) (A) (A) (A) (A) (A) (A) (A) (A) (A) (A)
                 (A) (A) (A) (A) (A) (A) (A) (A) (A) (A) (A) (A)
                 (A) (A) (A) (A) (A) (A) (A) (A) (A) (A) (A) (A)
                 (A) (A) (A) (A) (A)
 The electronic state is 1-A.
 Alpha  occ. eigenvalues -- -101.37875 -14.45210 -14.43452 -10.31069 -10.27912
 Alpha  occ. eigenvalues --  -10.25623 -10.23899 -10.23166 -10.17214  -9.29263
 Alpha  occ. eigenvalues --   -7.05105  -7.05083  -7.05060  -1.11194  -0.99510
 Alpha  occ. eigenvalues --   -0.84173  -0.81127  -0.77034  -0.68907  -0.67135
 Alpha  occ. eigenvalues --   -0.64648  -0.63558  -0.59168  -0.54808  -0.52311
 Alpha  occ. eigenvalues --   -0.52092  -0.49717  -0.48514  -0.47935  -0.45789
 Alpha  occ. eigenvalues --   -0.45464  -0.41838  -0.39101  -0.37170  -0.34121
 Alpha  occ. eigenvalues --   -0.30150  -0.18448  -0.18236  -0.18072
 Alpha virt. eigenvalues --   -0.06874  -0.03924  -0.02035  -0.01587  -0.00206
 Alpha virt. eigenvalues --    0.00757   0.01170   0.01271   0.02814   0.03713
 Alpha virt. eigenvalues --    0.04485   0.05860   0.06290   0.06618   0.07303
 Alpha virt. eigenvalues --    0.08374   0.09102   0.09375   0.09930   0.10340
 Alpha virt. eigenvalues --    0.11320   0.12045   0.12703   0.13340   0.13936
 Alpha virt. eigenvalues --    0.14395   0.14928   0.15248   0.15574   0.16309
 Alpha virt. eigenvalues --    0.16653   0.17037   0.17718   0.18021   0.18577
 Alpha virt. eigenvalues --    0.19027   0.19466   0.19910   0.20949   0.22248
 Alpha virt. eigenvalues --    0.22641   0.23468   0.23767   0.24065   0.24563
 Alpha virt. eigenvalues --    0.25872   0.26256   0.27633   0.28189   0.28767
 Alpha virt. eigenvalues --    0.29486   0.30375   0.35724   0.36619   0.37327
 Alpha virt. eigenvalues --    0.38273   0.39076   0.39643   0.42023   0.42888
 Alpha virt. eigenvalues --    0.44979   0.47034   0.48093   0.49315   0.52002
 Alpha virt. eigenvalues --    0.52946   0.53982   0.54455   0.55347   0.55588
 Alpha virt. eigenvalues --    0.57608   0.57969   0.58238   0.59323   0.61594
 Alpha virt. eigenvalues --    0.62453   0.63122   0.63425   0.65576   0.65924
 Alpha virt. eigenvalues --    0.67181   0.67489   0.68159   0.70074   0.71140
 Alpha virt. eigenvalues --    0.72570   0.74550   0.75950   0.77637   0.79202
 Alpha virt. eigenvalues --    0.81712   0.84657   0.86078   0.90047   0.90256
 Alpha virt. eigenvalues --    0.93210   0.94069   0.94530   0.98795   0.99953
 Alpha virt. eigenvalues --    1.02151   1.02446   1.02996   1.04618   1.04934
 Alpha virt. eigenvalues --    1.06730   1.08848   1.09702   1.11251   1.13158
 Alpha virt. eigenvalues --    1.17879   1.22843   1.26379   1.27001   1.29681
 Alpha virt. eigenvalues --    1.32129   1.35403   1.36480   1.38514   1.41240
 Alpha virt. eigenvalues --    1.44692   1.46924   1.47800   1.48860   1.51017
 Alpha virt. eigenvalues --    1.53978   1.54937   1.55744   1.57274   1.57453
 Alpha virt. eigenvalues --    1.58871   1.59299   1.60037   1.62039   1.63882
 Alpha virt. eigenvalues --    1.67104   1.69222   1.69504   1.73175   1.74683
 Alpha virt. eigenvalues --    1.76362   1.76547   1.77642   1.78825   1.82388
 Alpha virt. eigenvalues --    1.84291   1.89712   1.93245   1.96875   1.99691
 Alpha virt. eigenvalues --    2.01346   2.05104   2.06557   2.09148   2.10492
 Alpha virt. eigenvalues --    2.13644   2.16016   2.19032   2.23523   2.25571
 Alpha virt. eigenvalues --    2.28875   2.30511   2.33808   2.36766   2.40191
 Alpha virt. eigenvalues --    2.40379   2.40844   2.43919   2.44856   2.45597
 Alpha virt. eigenvalues --    2.46734   2.48205   2.48993   2.50437   2.51962
 Alpha virt. eigenvalues --    2.54128   2.56234   2.57461   2.58918   2.59214
 Alpha virt. eigenvalues --    2.60168   2.62893   2.65463   2.65673   2.69174
 Alpha virt. eigenvalues --    2.71769   2.73301   2.75978   2.77176   2.81276
 Alpha virt. eigenvalues --    2.83841   2.85844   2.87929   2.91891   2.92753
 Alpha virt. eigenvalues --    2.95191   2.95965   3.07879   3.18803   3.26474
 Alpha virt. eigenvalues --    3.36505   3.52834   3.55212   3.60218   3.64312
 Alpha virt. eigenvalues --    3.67671   3.70107   3.77896   3.78138   3.82580
 Alpha virt. eigenvalues --    3.85077   3.86058   3.87180   3.87326   4.07016
 Alpha virt. eigenvalues --    4.21261   4.68239   4.88708   4.92066   5.22012
 Alpha virt. eigenvalues --    9.85244  23.70597  23.84083  23.85172  23.86931
 Alpha virt. eigenvalues --   23.96853  24.14682  25.98126  26.04706  26.17932
 Alpha virt. eigenvalues --   35.41234  35.56577 215.83459
          Condensed to atoms (all electrons):
               1          2          3          4          5          6
     1  C    8.598994  -2.893671   0.061454  -0.669075   0.451066  -0.013077
     2  C   -2.893671   8.660497  -0.240355   0.970807  -0.164230   0.427477
     3  C    0.061454  -0.240355   5.259293   0.411172   0.019019   0.010243
     4  N   -0.669075   0.970807   0.411172   7.119530  -0.061810   0.025393
     5  H    0.451066  -0.164230   0.019019  -0.061810   0.442631  -0.002159
     6  H   -0.013077   0.427477   0.010243   0.025393  -0.002159   0.480203
     7  H    0.037376  -0.021704   0.436379  -0.034917   0.000229  -0.000036
     8  N    0.923506  -0.577584   0.420535  -0.553082   0.031770  -0.076791
     9  C   -0.876292   0.419346  -0.213840  -0.091168  -0.030152  -0.001297
    10  C    0.004550   0.097691   0.016028   0.045585   0.006008   0.000003
    11  H   -0.000029   0.013493   0.009229  -0.025161  -0.006921   0.000053
    12  H    0.052332  -0.026201   0.025841  -0.023838   0.000299   0.000027
    13  H    0.000425   0.002225   0.002952   0.025325   0.000084  -0.000001
    14  H    0.015200  -0.007804  -0.004165  -0.010199   0.000435   0.000012
    15  H   -0.005798  -0.002881  -0.000322  -0.023422  -0.000487   0.000008
    16  C    0.234694  -0.306054  -0.147462  -0.079916   0.000985  -0.009805
    17  H    0.023088  -0.023969  -0.013887  -0.008125  -0.000001  -0.000452
    18  H    0.010177  -0.013368  -0.017391  -0.004407   0.000008  -0.000511
    19  H   -0.000490  -0.000400   0.028483   0.011273  -0.000005  -0.000040
    20  Cl   0.105084  -0.132690   0.032889   0.048832   0.115150   0.000656
               7          8          9         10         11         12
     1  C    0.037376   0.923506  -0.876292   0.004550  -0.000029   0.052332
     2  C   -0.021704  -0.577584   0.419346   0.097691   0.013493  -0.026201
     3  C    0.436379   0.420535  -0.213840   0.016028   0.009229   0.025841
     4  N   -0.034917  -0.553082  -0.091168   0.045585  -0.025161  -0.023838
     5  H    0.000229   0.031770  -0.030152   0.006008  -0.006921   0.000299
     6  H   -0.000036  -0.076791  -0.001297   0.000003   0.000053   0.000027
     7  H    0.478860  -0.046405  -0.008620   0.005759   0.000185   0.000529
     8  N   -0.046405   6.901465  -0.230856   0.005651  -0.005140   0.016538
     9  C   -0.008620  -0.230856   7.646182  -0.724073   0.343177   0.245914
    10  C    0.005759   0.005651  -0.724073   5.738673  -0.003110   0.015000
    11  H    0.000185  -0.005140   0.343177  -0.003110   0.430146  -0.019069
    12  H    0.000529   0.016538   0.245914   0.015000  -0.019069   0.578454
    13  H   -0.000029  -0.000243  -0.100627   0.449099  -0.003669  -0.002734
    14  H   -0.000017   0.004418  -0.037518   0.424680  -0.008685   0.006408
    15  H   -0.000196  -0.004345   0.074771   0.324624   0.005767  -0.010003
    16  C   -0.005720   0.318402  -0.104614   0.020625   0.000772   0.005276
    17  H   -0.000068  -0.033473  -0.000442  -0.000274  -0.000003  -0.000002
    18  H   -0.000058  -0.033164  -0.000078  -0.000258  -0.000006  -0.000005
    19  H    0.001523  -0.048257   0.003290  -0.000067   0.000000   0.000003
    20  Cl   0.000309   0.022506  -0.240648   0.008809   0.042313   0.005630
              13         14         15         16         17         18
     1  C    0.000425   0.015200  -0.005798   0.234694   0.023088   0.010177
     2  C    0.002225  -0.007804  -0.002881  -0.306054  -0.023969  -0.013368
     3  C    0.002952  -0.004165  -0.000322  -0.147462  -0.013887  -0.017391
     4  N    0.025325  -0.010199  -0.023422  -0.079916  -0.008125  -0.004407
     5  H    0.000084   0.000435  -0.000487   0.000985  -0.000001   0.000008
     6  H   -0.000001   0.000012   0.000008  -0.009805  -0.000452  -0.000511
     7  H   -0.000029  -0.000017  -0.000196  -0.005720  -0.000068  -0.000058
     8  N   -0.000243   0.004418  -0.004345   0.318402  -0.033473  -0.033164
     9  C   -0.100627  -0.037518   0.074771  -0.104614  -0.000442  -0.000078
    10  C    0.449099   0.424680   0.324624   0.020625  -0.000274  -0.000258
    11  H   -0.003669  -0.008685   0.005767   0.000772  -0.000003  -0.000006
    12  H   -0.002734   0.006408  -0.010003   0.005276  -0.000002  -0.000005
    13  H    0.513516  -0.014722  -0.030999   0.000049   0.000000   0.000000
    14  H   -0.014722   0.443965  -0.031025   0.000646  -0.000001   0.000001
    15  H   -0.030999  -0.031025   0.594665  -0.001424   0.000003   0.000001
    16  C    0.000049   0.000646  -0.001424   5.045927   0.423799   0.425556
    17  H    0.000000  -0.000001   0.000003   0.423799   0.501006  -0.033598
    18  H    0.000000   0.000001   0.000001   0.425556  -0.033598   0.496241
    19  H    0.000000   0.000001   0.000005   0.379087  -0.022292  -0.022627
    20  Cl  -0.000479   0.008570  -0.000070   0.004213   0.000014   0.000005
              19         20
     1  C   -0.000490   0.105084
     2  C   -0.000400  -0.132690
     3  C    0.028483   0.032889
     4  N    0.011273   0.048832
     5  H   -0.000005   0.115150
     6  H   -0.000040   0.000656
     7  H    0.001523   0.000309
     8  N   -0.048257   0.022506
     9  C    0.003290  -0.240648
    10  C   -0.000067   0.008809
    11  H    0.000000   0.042313
    12  H    0.000003   0.005630
    13  H    0.000000  -0.000479
    14  H    0.000001   0.008570
    15  H    0.000005  -0.000070
    16  C    0.379087   0.004213
    17  H   -0.022292   0.000014
    18  H   -0.022627   0.000005
    19  H    0.508914   0.000001
    20  Cl   0.000001  17.717500
 Mulliken charges:
               1
     1  C   -0.059513
     2  C   -0.180625
     3  C   -0.096095
     4  N   -0.072799
     5  H    0.198081
     6  H    0.160094
     7  H    0.156620
     8  N   -0.035452
     9  C   -0.072455
    10  C   -0.435002
    11  H    0.226658
    12  H    0.129600
    13  H    0.159829
    14  H    0.209802
    15  H    0.111130
    16  C   -0.205036
    17  H    0.188677
    18  H    0.193484
    19  H    0.161598
    20  Cl  -0.738597
 Sum of Mulliken charges =   0.00000
 Mulliken charges with hydrogens summed into heavy atoms:
               1
     1  C    0.138568
     2  C   -0.020531
     3  C    0.060526
     4  N   -0.072799
     8  N   -0.035452
     9  C    0.283803
    10  C    0.045759
    16  C    0.338724
    20  Cl  -0.738597
 Electronic spatial extent (au):  <R**2>=           1976.2340
 Charge=              0.0000 electrons
 Dipole moment (field-independent basis, Debye):
    X=            -15.5146    Y=             -4.7817    Z=             -0.1692  Tot=             16.2356
 Quadrupole moment (field-independent basis, Debye-Ang):
   XX=            -76.6473   YY=            -60.5249   ZZ=            -64.8992
   XY=            -15.4164   XZ=              0.2286   YZ=              3.0179
 Traceless Quadrupole moment (field-independent basis, Debye-Ang):
   XX=             -9.2901   YY=              6.8322   ZZ=              2.4580
   XY=            -15.4164   XZ=              0.2286   YZ=              3.0179
 Octapole moment (field-independent basis, Debye-Ang**2):
  XXX=           -195.4230  YYY=            -11.3040  ZZZ=             -0.5362  XYY=            -29.4521
  XXY=            -39.9903  XXZ=              3.0835  XZZ=             -8.4627  YZZ=             -3.6009
  YYZ=             -0.5960  XYZ=             -2.1346
 Hexadecapole moment (field-independent basis, Debye-Ang**3):
 XXXX=          -2070.0423 YYYY=           -597.2651 ZZZZ=           -151.0939 XXXY=           -163.1758
 XXXZ=              1.5333 YYYX=            -47.1069 YYYZ=             16.7579 ZZZX=             -2.0390
 ZZZY=              3.6010 XXYY=           -441.8772 XXZZ=           -354.3406 YYZZ=           -127.8661
 XXYZ=              9.8222 YYXZ=              0.7935 ZZXY=            -10.3960
 N-N= 5.138198111849D+02 E-N=-2.922106323421D+03  KE= 8.024381438408D+02
 Calling FoFJK, ICntrl=      2127 FMM=F ISym2X=0 I1Cent= 0 IOpClX= 0 NMat=1 NMatS=1 NMatT=0.
 ***** Axes restored to original set *****
 -------------------------------------------------------------------
 Center     Atomic                   Forces (Hartrees/Bohr)
 Number     Number              X              Y              Z
 -------------------------------------------------------------------
      1        6           0.000040980    0.000009220    0.000119226
      2        6          -0.000042715   -0.000043510   -0.000012701
      3        6          -0.000093991   -0.000012125   -0.000346519
      4        7           0.000083067   -0.000009874    0.000401154
      5        1          -0.000089989   -0.000037951    0.000004304
      6        1           0.000026321    0.000010547   -0.000006400
      7        1           0.000003523    0.000002012    0.000000289
      8        7           0.000052462    0.000059257   -0.000006000
      9        6          -0.000029425   -0.000022401   -0.000034692
     10        6          -0.000006639   -0.000020936    0.000023610
     11        1           0.000027178    0.000012008    0.000000580
     12        1           0.000007845    0.000014877    0.000005094
     13        1           0.000001065    0.000006413    0.000001161
     14        1           0.000010176    0.000014110   -0.000002196
     15        1           0.000005164    0.000004853   -0.000000472
     16        6          -0.000015763   -0.000005955    0.000007745
     17        1           0.000001470   -0.000001791    0.000000554
     18        1           0.000001849    0.000002001    0.000001484
     19        1           0.000002622    0.000000943   -0.000005443
     20       17           0.000014800    0.000018302   -0.000150779
 -------------------------------------------------------------------
 Cartesian Forces:  Max     0.000401154 RMS     0.000077722

 GradGradGradGradGradGradGradGradGradGradGradGradGradGradGradGradGradGrad
 Berny optimization.
 FormGI is forming the generalized inverse of G from B-inverse, IUseBI=4.
 Internal  Forces:  Max     0.000154966 RMS     0.000021788
 Search for a local minimum.
 Step number   1 out of a maximum of  115
 All quantities printed in internal units (Hartrees-Bohrs-Radians)
 Mixed Optimization -- En-DIIS/RFO-DIIS
 Second derivative matrix not updated -- first step.
 ITU=  0
     Eigenvalues ---    0.00476   0.00481   0.00594   0.00898   0.01532
     Eigenvalues ---    0.01581   0.01665   0.01847   0.01988   0.02176
     Eigenvalues ---    0.02456   0.02524   0.04404   0.04712   0.05367
     Eigenvalues ---    0.05543   0.05976   0.07539   0.07640   0.09285
     Eigenvalues ---    0.09706   0.12615   0.16000   0.16000   0.16000
     Eigenvalues ---    0.16000   0.16000   0.16000   0.16000   0.16338
     Eigenvalues ---    0.21802   0.22812   0.23372   0.24865   0.24995
     Eigenvalues ---    0.29552   0.30092   0.34213   0.34312   0.34481
     Eigenvalues ---    0.34576   0.34599   0.34711   0.34772   0.34806
     Eigenvalues ---    0.34984   0.35279   0.36451   0.36961   0.42362
     Eigenvalues ---    0.43037   0.48004   0.54544   0.56632
 RFO step:  Lambda=-1.60278970D-06 EMin= 4.75698565D-03
 Linear search not attempted -- first point.
 Iteration  1 RMS(Cart)=  0.00078200 RMS(Int)=  0.00000111
 Iteration  2 RMS(Cart)=  0.00000100 RMS(Int)=  0.00000050
 Iteration  3 RMS(Cart)=  0.00000000 RMS(Int)=  0.00000050
 Variable       Old X    -DE/DX   Delta X   Delta X   Delta X     New X
                                 (Linear)    (Quad)   (Total)
    R1        2.57648  -0.00001   0.00000  -0.00006  -0.00006   2.57642
    R2        2.61551  -0.00003   0.00000  -0.00008  -0.00008   2.61543
    R3        2.08393  -0.00006   0.00000  -0.00020  -0.00020   2.08374
    R4        2.03331   0.00001   0.00000   0.00001   0.00001   2.03332
    R5        2.62132  -0.00003   0.00000  -0.00007  -0.00007   2.62125
    R6        2.52005   0.00003   0.00000   0.00006   0.00006   2.52011
    R7        2.03382   0.00000   0.00000  -0.00001  -0.00001   2.03381
    R8        2.53369   0.00003   0.00000   0.00006   0.00006   2.53375
    R9        2.80246   0.00001   0.00000   0.00002   0.00002   2.80247
   R10        4.04422   0.00005   0.00000   0.00074   0.00074   4.04496
   R11        9.33772  -0.00001   0.00000   0.00040   0.00040   9.33813
   R12        2.75905   0.00001   0.00000   0.00003   0.00003   2.75907
   R13        2.87605   0.00002   0.00000   0.00007   0.00007   2.87612
   R14        2.06526   0.00002   0.00000   0.00007   0.00007   2.06533
   R15        2.06368  -0.00002   0.00000  -0.00005  -0.00005   2.06363
   R16        2.06331   0.00000   0.00000  -0.00001  -0.00001   2.06330
   R17        2.06147   0.00001   0.00000   0.00004   0.00004   2.06151
   R18        2.06807  -0.00001   0.00000  -0.00002  -0.00002   2.06805
   R19        2.05991   0.00000   0.00000   0.00000   0.00000   2.05991
   R20        2.06047   0.00000   0.00000   0.00000   0.00000   2.06047
   R21        2.05701   0.00000   0.00000  -0.00001  -0.00001   2.05700
    A1        1.85550   0.00001   0.00000   0.00004   0.00004   1.85554
    A2        2.36053   0.00002   0.00000   0.00011   0.00012   2.36065
    A3        2.06715  -0.00003   0.00000  -0.00016  -0.00016   2.06699
    A4        2.28214  -0.00002   0.00000  -0.00009  -0.00009   2.28205
    A5        1.87763   0.00000   0.00000  -0.00002  -0.00002   1.87761
    A6        2.12340   0.00002   0.00000   0.00011   0.00011   2.12351
    A7        2.19806   0.00001   0.00000   0.00004   0.00004   2.19810
    A8        1.89462  -0.00003   0.00000  -0.00010  -0.00010   1.89451
    A9        2.19050   0.00002   0.00000   0.00006   0.00006   2.19056
   A10        1.90875   0.00000   0.00000   0.00002   0.00002   1.90877
   A11        2.18283  -0.00003   0.00000  -0.00011  -0.00011   2.18271
   A12        2.19038   0.00002   0.00000   0.00009   0.00009   2.19047
   A13        0.96616   0.00001   0.00000   0.00012   0.00012   0.96628
   A14        1.88826   0.00001   0.00000   0.00006   0.00006   1.88832
   A15        2.19709   0.00000   0.00000  -0.00001  -0.00001   2.19708
   A16        2.19773  -0.00001   0.00000  -0.00005  -0.00005   2.19767
   A17        1.94189  -0.00002   0.00000  -0.00011  -0.00011   1.94178
   A18        1.85062   0.00001   0.00000   0.00002   0.00002   1.85063
   A19        1.86005   0.00000   0.00000   0.00006   0.00006   1.86011
   A20        1.90868  -0.00001   0.00000  -0.00017  -0.00017   1.90851
   A21        1.96509   0.00001   0.00000   0.00013   0.00013   1.96522
   A22        1.93389   0.00000   0.00000   0.00007   0.00007   1.93396
   A23        1.89955   0.00000   0.00000   0.00002   0.00002   1.89957
   A24        1.90898  -0.00001   0.00000  -0.00011  -0.00011   1.90887
   A25        1.95391   0.00001   0.00000   0.00006   0.00006   1.95397
   A26        1.87537   0.00000   0.00000  -0.00004  -0.00004   1.87533
   A27        1.89590   0.00000   0.00000   0.00005   0.00005   1.89594
   A28        1.92820   0.00000   0.00000   0.00002   0.00002   1.92822
   A29        1.91413   0.00000   0.00000  -0.00001  -0.00001   1.91412
   A30        1.91794   0.00000   0.00000  -0.00001  -0.00001   1.91793
   A31        1.90508   0.00000   0.00000  -0.00001  -0.00001   1.90507
   A32        1.91449   0.00000   0.00000   0.00000   0.00000   1.91449
   A33        1.90520   0.00000   0.00000   0.00003   0.00003   1.90523
   A34        1.90688   0.00000   0.00000   0.00001   0.00001   1.90688
   A35        0.16046   0.00001   0.00000   0.00014   0.00015   0.16061
   A36        2.68278   0.00002   0.00000   0.00104   0.00104   2.68382
   A37        2.90787  -0.00001   0.00000  -0.00152  -0.00153   2.90634
    D1       -3.13231  -0.00001   0.00000   0.00010   0.00010  -3.13221
    D2        0.00295  -0.00002   0.00000  -0.00009  -0.00009   0.00286
    D3        0.00643  -0.00002   0.00000  -0.00037  -0.00037   0.00606
    D4       -3.14150  -0.00003   0.00000  -0.00056  -0.00056   3.14113
    D5       -0.00561   0.00002   0.00000   0.00022   0.00022  -0.00539
    D6       -3.09622   0.00001   0.00000   0.00012   0.00012  -3.09610
    D7        3.13827   0.00003   0.00000   0.00060   0.00060   3.13887
    D8        0.04766   0.00002   0.00000   0.00050   0.00050   0.04816
    D9        0.00115   0.00002   0.00000   0.00169   0.00169   0.00283
   D10        3.13151  -0.00001   0.00000  -0.00166  -0.00166   3.12985
   D11        0.00075   0.00001   0.00000   0.00110   0.00111   0.00185
   D12       -3.13374   0.00002   0.00000   0.00131   0.00131  -3.13243
   D13        0.00067   0.00000   0.00000  -0.00008  -0.00008   0.00059
   D14       -3.12612   0.00000   0.00000  -0.00007  -0.00007  -3.12620
   D15        3.13662  -0.00001   0.00000  -0.00024  -0.00024   3.13637
   D16        0.00983  -0.00001   0.00000  -0.00024  -0.00024   0.00959
   D17       -3.13986  -0.00001   0.00000  -0.00004  -0.00004  -3.13990
   D18       -0.04952   0.00000   0.00000   0.00005   0.00005  -0.04946
   D19        0.00612  -0.00002   0.00000  -0.00028  -0.00027   0.00585
   D20        3.09646  -0.00001   0.00000  -0.00018  -0.00018   3.09628
   D21       -0.00263   0.00015   0.00000   0.00724   0.00724   0.00461
   D22       -0.00419   0.00001   0.00000   0.00022   0.00022  -0.00397
   D23        3.12259   0.00001   0.00000   0.00021   0.00021   3.12281
   D24       -3.14142   0.00000   0.00000  -0.00002  -0.00002  -3.14144
   D25       -0.01464   0.00000   0.00000  -0.00002  -0.00002  -0.01466
   D26        1.47447   0.00000   0.00000  -0.00029  -0.00029   1.47418
   D27       -0.59917   0.00002   0.00000  -0.00003  -0.00003  -0.59920
   D28       -2.66047   0.00001   0.00000  -0.00015  -0.00015  -2.66063
   D29       -1.60804  -0.00002   0.00000  -0.00040  -0.00040  -1.60844
   D30        2.60151   0.00000   0.00000  -0.00015  -0.00015   2.60137
   D31        0.54020  -0.00001   0.00000  -0.00026  -0.00026   0.53994
   D32       -0.01928  -0.00003   0.00000  -0.00602  -0.00602  -0.02530
   D33       -1.01249   0.00000   0.00000  -0.00032  -0.00032  -1.01281
   D34        1.09337   0.00000   0.00000  -0.00033  -0.00033   1.09304
   D35       -3.09897   0.00000   0.00000  -0.00034  -0.00034  -3.09931
   D36        2.14647   0.00000   0.00000  -0.00032  -0.00032   2.14615
   D37       -2.03086   0.00000   0.00000  -0.00033  -0.00033  -2.03118
   D38        0.05999   0.00000   0.00000  -0.00034  -0.00034   0.05965
   D39        3.10718   0.00000   0.00000  -0.00006  -0.00006   3.10712
   D40       -1.13187   0.00000   0.00000  -0.00016  -0.00016  -1.13203
   D41        1.01124   0.00000   0.00000  -0.00017  -0.00017   1.01107
   D42       -1.13750   0.00000   0.00000  -0.00021  -0.00021  -1.13772
   D43        0.90663  -0.00001   0.00000  -0.00031  -0.00031   0.90632
   D44        3.04974  -0.00001   0.00000  -0.00032  -0.00032   3.04942
   D45        1.02038   0.00000   0.00000  -0.00016  -0.00016   1.02022
   D46        3.06451   0.00000   0.00000  -0.00025  -0.00025   3.06425
   D47       -1.07557   0.00000   0.00000  -0.00026  -0.00026  -1.07583
         Item               Value     Threshold  Converged?
 Maximum Force            0.000155     0.000450     YES
 RMS     Force            0.000022     0.000300     YES
 Maximum Displacement     0.006255     0.001800     NO 
 RMS     Displacement     0.000782     0.001200     YES
 Predicted change in Energy=-8.011906D-07
 GradGradGradGradGradGradGradGradGradGradGradGradGradGradGradGradGradGrad

                          Input orientation:                          
 ---------------------------------------------------------------------
 Center     Atomic      Atomic             Coordinates (Angstroms)
 Number     Number       Type             X           Y           Z
 ---------------------------------------------------------------------
      1          6           0       -0.014182    0.773788   -0.181287
      2          6           0       -1.210947    1.385473    0.047635
      3          6           0       -1.596178   -0.780223   -0.163366
      4          7           0       -0.286733   -0.576730   -0.313014
      5          1           0        1.031652    1.109999   -0.276500
      6          1           0       -1.451805    2.423201    0.198811
      7          1           0       -2.097446   -1.731300   -0.213295
      8          7           0       -2.189273    0.402175    0.055554
      9          6           0        0.731492   -1.635247   -0.518116
     10          6           0        1.324772   -2.094186    0.806200
     11          1           0        1.516882   -1.184151   -1.129804
     12          1           0        0.235426   -2.444209   -1.058508
     13          1           0        2.041112   -2.895194    0.612855
     14          1           0        1.872569   -1.268609    1.262722
     15          1           0        0.557280   -2.469151    1.490303
     16          6           0       -3.619996    0.619986    0.248697
     17          1           0       -3.790039    1.114634    1.205060
     18          1           0       -4.013650    1.237240   -0.559328
     19          1           0       -4.130889   -0.341190    0.247767
     20         17           0        3.102791    0.686346   -0.612142
 ---------------------------------------------------------------------
                    Distance matrix (angstroms):
                    1          2          3          4          5
     1  C    0.000000
     2  C    1.363382   0.000000
     3  C    2.217653   2.209789   0.000000
     4  N    1.384029   2.198745   1.333586   0.000000
     5  H    1.102666   2.282586   3.239018   2.141152   0.000000
     6  H    2.220765   1.075986   3.227064   3.258672   2.849207
     7  H    3.258294   3.250883   1.076248   2.149804   4.227083
     8  N    2.219282   1.387105   1.340803   2.171119   3.314459
     9  C    2.544195   3.635641   2.504987   1.483005   2.772156
    10  C    3.315600   4.371878   3.346418   2.480375   3.394843
    11  H    2.660331   3.928152   3.284555   2.071021   2.495335
    12  H    3.344746   4.240520   2.631521   2.077472   3.725307
    13  H    4.279757   5.405504   4.278493   3.413410   4.225108
    14  H    3.133110   4.246017   3.782123   2.761200   2.955355
    15  H    3.692889   4.479514   3.197574   2.746920   4.019570
    16  C    3.634617   2.535728   2.495240   3.585847   4.706780
    17  H    4.036735   2.839842   3.205636   4.175933   5.044180
    18  H    4.043940   2.871502   3.173502   4.152237   5.054826
    19  H    4.286554   3.398159   2.605099   3.891978   5.388195
    20  Cl   3.147825   4.419549   4.942928   3.629560   2.140503
                    6          7          8          9         10
     6  H    0.000000
     7  H    4.224519   0.000000
     8  N    2.156138   2.152307   0.000000
     9  C    4.663879   2.846933   3.607083   0.000000
    10  C    5.337142   3.589238   4.375363   1.521979   0.000000
    11  H    4.857088   3.768650   4.202033   1.092926   2.147832
    12  H    5.302762   2.581649   3.901564   1.092028   2.187768
    13  H    6.376302   4.377766   5.392530   2.140483   1.091851
    14  H    5.080633   4.260718   4.554924   2.146593   1.090903
    15  H    5.444215   3.239481   4.224520   2.181627   1.094368
    16  C    2.820484   2.839040   1.460040   4.960799   5.668181
    17  H    2.862206   3.602214   2.095570   5.565557   6.051191
    18  H    2.923069   3.550185   2.098515   5.547004   6.439086
    19  H    3.849903   2.505968   2.087920   5.089588   5.757525
    20  Cl   4.941523   5.748613   5.341583   3.319893   3.592269
                   11         12         13         14         15
    11  H    0.000000
    12  H    1.798600   0.000000
    13  H    2.497869   2.501468   0.000000
    14  H    2.420295   3.074147   1.759690   0.000000
    15  H    3.071974   2.569173   1.775721   1.795293   0.000000
    16  C    5.616288   5.095327   6.673624   5.896042   5.341722
    17  H    6.236939   5.830392   7.101532   6.143965   5.641282
    18  H    6.064269   5.644192   7.423690   6.651821   6.231511
    19  H    5.874147   5.019338   6.689531   6.158876   5.296324
    20  Cl   2.506359   4.268653   3.931311   2.974964   4.566953
                   16         17         18         19         20
    16  C    0.000000
    17  H    1.090056   0.000000
    18  H    1.090353   1.782722   0.000000
    19  H    1.088519   1.775391   1.776679   0.000000
    20  Cl   6.778002   7.141202   7.137928   7.356725   0.000000
 Stoichiometry    C6H11ClN2
 Framework group  C1[X(C6H11ClN2)]
 Deg. of freedom    54
 Full point group                 C1      NOp   1
 Largest Abelian subgroup         C1      NOp   1
 Largest concise Abelian subgroup C1      NOp   1
                         Standard orientation:                         
 ---------------------------------------------------------------------
 Center     Atomic      Atomic             Coordinates (Angstroms)
 Number     Number       Type             X           Y           Z
 ---------------------------------------------------------------------
      1          6           0       -0.100257    0.850163    0.065677
      2          6           0       -1.364924    1.319340    0.263921
      3          6           0       -1.523770   -0.806079   -0.319623
      4          7           0       -0.231352   -0.477774   -0.301655
      5          1           0        0.913432    1.279173    0.130938
      6          1           0       -1.715100    2.295874    0.549411
      7          1           0       -1.926597   -1.772768   -0.567718
      8          7           0       -2.242859    0.273712    0.019072
      9          6           0        0.896396   -1.404357   -0.564205
     10          6           0        1.411801   -2.025745    0.726010
     11          1           0        1.686310   -0.798340   -1.015054
     12          1           0        0.528364   -2.150495   -1.271565
     13          1           0        2.214821   -2.724953    0.484340
     14          1           0        1.836925   -1.245427    1.358815
     15          1           0        0.626082   -2.567357    1.261680
     16          6           0       -3.699170    0.342938    0.097049
     17          1           0       -3.998508    0.659082    1.096385
     18          1           0       -4.076910    1.051166   -0.640918
     19          1           0       -4.114891   -0.642476   -0.105454
     20         17           0        3.036771    1.081611   -0.053868
 ---------------------------------------------------------------------
 Rotational constants (GHZ):      2.3922126      0.6891101      0.5616216
 Standard basis: 6-311+G(d,p) (5D, 7F)
 There are   281 symmetry adapted cartesian basis functions of A   symmetry.
 There are   272 symmetry adapted basis functions of A   symmetry.
   272 basis functions,   429 primitive gaussians,   281 cartesian basis functions
    39 alpha electrons       39 beta electrons
       nuclear repulsion energy       513.8372960632 Hartrees.
 NAtoms=   20 NActive=   20 NUniq=   20 SFac= 1.00D+00 NAtFMM=   60 NAOKFM=F Big=F
 Integral buffers will be    131072 words long.
 Raffenetti 2 integral format.
 Two-electron integral symmetry is turned on.
 Nuclear repulsion after empirical dispersion term =      513.8048512267 Hartrees.
 One-electron integrals computed using PRISM.
 NBasis=   272 RedAO= T EigKep=  7.69D-06  NBF=   272
 NBsUse=   272 1.00D-06 EigRej= -1.00D+00 NBFU=   272
 Initial guess from the checkpoint file:  "CJS1_emim-cl_B_6-311+g-d-p-_gd3bj_opt-modredundant_unfrz.chk"
 B after Tr=     0.000000    0.000000    0.000000
         Rot=    1.000000   -0.000096    0.000022    0.000049 Ang=  -0.01 deg.
 Keep R1 ints in memory in canonical form, NReq=700735283.
 Requested convergence on RMS density matrix=1.00D-09 within 128 cycles.
 Requested convergence on MAX density matrix=1.00D-07.
 Requested convergence on             energy=1.00D-07.
 No special actions if energy rises.
 SCF Done:  E(RB3LYP) =  -805.105219172     A.U. after   10 cycles
            NFock= 10  Conv=0.57D-09     -V/T= 2.0033
 Calling FoFJK, ICntrl=      2127 FMM=F ISym2X=0 I1Cent= 0 IOpClX= 0 NMat=1 NMatS=1 NMatT=0.
 ***** Axes restored to original set *****
 -------------------------------------------------------------------
 Center     Atomic                   Forces (Hartrees/Bohr)
 Number     Number              X              Y              Z
 -------------------------------------------------------------------
      1        6           0.000047494   -0.000026439    0.000135265
      2        6          -0.000042306   -0.000016418   -0.000014002
      3        6          -0.000048381    0.000031986   -0.000311147
      4        7           0.000054951   -0.000048470    0.000365610
      5        1          -0.000043208    0.000001246   -0.000002285
      6        1           0.000017441    0.000004085   -0.000003030
      7        1           0.000001351    0.000001532    0.000002194
      8        7           0.000012958    0.000028429   -0.000023809
      9        6          -0.000013313   -0.000007257   -0.000013423
     10        6          -0.000000764   -0.000002482    0.000001639
     11        1           0.000013255    0.000013925   -0.000009895
     12        1           0.000001633    0.000002768    0.000005388
     13        1           0.000001017    0.000002171    0.000000552
     14        1           0.000000908    0.000001482    0.000004023
     15        1           0.000006430    0.000006060    0.000003297
     16        6          -0.000008152   -0.000001754    0.000002749
     17        1          -0.000000053   -0.000002514    0.000001025
     18        1           0.000000766    0.000001520    0.000001648
     19        1           0.000000558    0.000000315   -0.000004616
     20       17          -0.000002583    0.000009815   -0.000141184
 -------------------------------------------------------------------
 Cartesian Forces:  Max     0.000365610 RMS     0.000069242

 GradGradGradGradGradGradGradGradGradGradGradGradGradGradGradGradGradGrad
 Berny optimization.
 Using GEDIIS/GDIIS optimizer.
 FormGI is forming the generalized inverse of G from B-inverse, IUseBI=4.
 Internal  Forces:  Max     0.000142114 RMS     0.000017858
 Search for a local minimum.
 Step number   2 out of a maximum of  115
 All quantities printed in internal units (Hartrees-Bohrs-Radians)
 Mixed Optimization -- En-DIIS/RFO-DIIS
 Swapping is turned off.
 Update second derivatives using D2CorX and points    1    2
 DE= -1.54D-06 DEPred=-8.01D-07 R= 1.92D+00
 TightC=F SS=  1.41D+00  RLast= 1.02D-02 DXNew= 5.0454D-01 3.0673D-02
 Trust test= 1.92D+00 RLast= 1.02D-02 DXMaxT set to 3.00D-01
 ITU=  1  0
     Eigenvalues ---    0.00068   0.00476   0.00630   0.00851   0.00943
     Eigenvalues ---    0.01540   0.01593   0.01764   0.01864   0.02001
     Eigenvalues ---    0.02427   0.02528   0.04401   0.05316   0.05383
     Eigenvalues ---    0.05543   0.06024   0.07540   0.07641   0.09325
     Eigenvalues ---    0.09983   0.12763   0.15995   0.16000   0.16000
     Eigenvalues ---    0.16000   0.16000   0.16000   0.16110   0.16509
     Eigenvalues ---    0.21923   0.22812   0.23867   0.24875   0.25034
     Eigenvalues ---    0.30031   0.30582   0.34262   0.34311   0.34456
     Eigenvalues ---    0.34596   0.34628   0.34772   0.34806   0.34851
     Eigenvalues ---    0.34987   0.35438   0.36452   0.36963   0.42970
     Eigenvalues ---    0.43234   0.48071   0.54648   0.56772
 En-DIIS/RFO-DIIS IScMMF=        0 using points:     2    1
 RFO step:  Lambda=-8.15789641D-07.
 DidBck=F Rises=F RFO-DIIS coefs:    1.00000    0.00000
 Iteration  1 RMS(Cart)=  0.01514365 RMS(Int)=  0.00031577
 Iteration  2 RMS(Cart)=  0.00034043 RMS(Int)=  0.00013183
 Iteration  3 RMS(Cart)=  0.00000042 RMS(Int)=  0.00013183
 Variable       Old X    -DE/DX   Delta X   Delta X   Delta X     New X
                                 (Linear)    (Quad)   (Total)
    R1        2.57642   0.00001   0.00000  -0.00046  -0.00029   2.57613
    R2        2.61543  -0.00002   0.00000  -0.00113  -0.00105   2.61439
    R3        2.08374  -0.00003   0.00000  -0.00256  -0.00233   2.08140
    R4        2.03332   0.00000   0.00000   0.00012   0.00007   2.03339
    R5        2.62125  -0.00002   0.00000  -0.00104  -0.00108   2.62017
    R6        2.52011   0.00001   0.00000   0.00076   0.00077   2.52089
    R7        2.03381   0.00000   0.00000  -0.00014  -0.00014   2.03367
    R8        2.53375   0.00002   0.00000   0.00085   0.00080   2.53455
    R9        2.80247   0.00000   0.00000  -0.00001  -0.00001   2.80246
   R10        4.04496   0.00002   0.00000   0.01014   0.01029   4.05525
   R11        9.33813   0.00000   0.00000   0.00579   0.00563   9.34376
   R12        2.75907   0.00001   0.00000   0.00039   0.00039   2.75947
   R13        2.87612   0.00001   0.00000   0.00090   0.00090   2.87703
   R14        2.06533   0.00002   0.00000   0.00123   0.00123   2.06656
   R15        2.06363  -0.00001   0.00000  -0.00056  -0.00056   2.06307
   R16        2.06330   0.00000   0.00000  -0.00013  -0.00013   2.06317
   R17        2.06151   0.00000   0.00000   0.00044   0.00044   2.06195
   R18        2.06805   0.00000   0.00000  -0.00027  -0.00027   2.06778
   R19        2.05991   0.00000   0.00000   0.00000   0.00000   2.05991
   R20        2.06047   0.00000   0.00000  -0.00004  -0.00004   2.06043
   R21        2.05700   0.00000   0.00000  -0.00009  -0.00009   2.05691
    A1        1.85554   0.00001   0.00000   0.00066   0.00057   1.85611
    A2        2.36065   0.00000   0.00000   0.00082   0.00101   2.36166
    A3        2.06699  -0.00001   0.00000  -0.00152  -0.00167   2.06533
    A4        2.28205  -0.00002   0.00000  -0.00223  -0.00221   2.27984
    A5        1.87761   0.00000   0.00000  -0.00021  -0.00017   1.87744
    A6        2.12351   0.00002   0.00000   0.00242   0.00235   2.12586
    A7        2.19810   0.00000   0.00000   0.00035   0.00032   2.19842
    A8        1.89451   0.00000   0.00000  -0.00085  -0.00080   1.89371
    A9        2.19056   0.00000   0.00000   0.00050   0.00048   2.19104
   A10        1.90877   0.00000   0.00000  -0.00004  -0.00003   1.90874
   A11        2.18271  -0.00003   0.00000  -0.00216  -0.00217   2.18055
   A12        2.19047   0.00003   0.00000   0.00234   0.00234   2.19281
   A13        0.96628   0.00000   0.00000   0.00086   0.00050   0.96678
   A14        1.88832   0.00000   0.00000   0.00044   0.00044   1.88876
   A15        2.19708   0.00000   0.00000   0.00007   0.00007   2.19716
   A16        2.19767   0.00000   0.00000  -0.00050  -0.00050   2.19717
   A17        1.94178  -0.00001   0.00000  -0.00133  -0.00134   1.94044
   A18        1.85063   0.00000   0.00000  -0.00061  -0.00061   1.85002
   A19        1.86011   0.00000   0.00000   0.00101   0.00101   1.86112
   A20        1.90851   0.00000   0.00000  -0.00208  -0.00208   1.90643
   A21        1.96522   0.00001   0.00000   0.00194   0.00194   1.96716
   A22        1.93396   0.00000   0.00000   0.00101   0.00101   1.93497
   A23        1.89957   0.00000   0.00000   0.00024   0.00024   1.89980
   A24        1.90887   0.00000   0.00000  -0.00097  -0.00097   1.90790
   A25        1.95397   0.00001   0.00000   0.00112   0.00112   1.95509
   A26        1.87533   0.00000   0.00000  -0.00053  -0.00053   1.87480
   A27        1.89594   0.00000   0.00000   0.00059   0.00059   1.89653
   A28        1.92822  -0.00001   0.00000  -0.00049  -0.00049   1.92773
   A29        1.91412   0.00000   0.00000  -0.00008  -0.00008   1.91404
   A30        1.91793   0.00000   0.00000  -0.00012  -0.00012   1.91781
   A31        1.90507   0.00000   0.00000  -0.00018  -0.00018   1.90489
   A32        1.91449   0.00000   0.00000   0.00003   0.00003   1.91453
   A33        1.90523   0.00000   0.00000   0.00035   0.00035   1.90557
   A34        1.90688   0.00000   0.00000   0.00000   0.00000   1.90688
   A35        0.16061  -0.00001   0.00000  -0.00034   0.00048   0.16109
   A36        2.68382  -0.00001   0.00000   0.01352   0.01310   2.69692
   A37        2.90634  -0.00002   0.00000  -0.03128  -0.03145   2.87489
    D1       -3.13221   0.00000   0.00000   0.00324   0.00332  -3.12888
    D2        0.00286  -0.00001   0.00000  -0.00112  -0.00098   0.00188
    D3        0.00606  -0.00002   0.00000  -0.00917  -0.00903  -0.00297
    D4        3.14113  -0.00003   0.00000  -0.01354  -0.01333   3.12779
    D5       -0.00539   0.00002   0.00000   0.00107   0.00087  -0.00452
    D6       -3.09610   0.00000   0.00000  -0.00206  -0.00214  -3.09823
    D7        3.13887   0.00003   0.00000   0.01101   0.01073  -3.13358
    D8        0.04816   0.00002   0.00000   0.00787   0.00773   0.05588
    D9        0.00283   0.00002   0.00000   0.03420   0.03436   0.03720
   D10        3.12985  -0.00001   0.00000  -0.03486  -0.03483   3.09501
   D11        0.00185   0.00001   0.00000   0.02238   0.02232   0.02418
   D12       -3.13243   0.00003   0.00000   0.02728   0.02716  -3.10527
   D13        0.00059   0.00001   0.00000   0.00079   0.00077   0.00136
   D14       -3.12620   0.00001   0.00000  -0.00002  -0.00006  -3.12626
   D15        3.13637   0.00000   0.00000  -0.00311  -0.00310   3.13328
   D16        0.00959   0.00000   0.00000  -0.00393  -0.00393   0.00566
   D17       -3.13990  -0.00001   0.00000  -0.00033  -0.00026  -3.14015
   D18       -0.04946   0.00001   0.00000   0.00266   0.00261  -0.04685
   D19        0.00585  -0.00002   0.00000  -0.00060  -0.00040   0.00544
   D20        3.09628   0.00000   0.00000   0.00240   0.00246   3.09874
   D21        0.00461   0.00014   0.00000   0.13434   0.13467   0.13928
   D22       -0.00397   0.00001   0.00000  -0.00012  -0.00022  -0.00419
   D23        3.12281   0.00001   0.00000   0.00070   0.00061   3.12342
   D24       -3.14144   0.00000   0.00000  -0.00038  -0.00037   3.14138
   D25       -0.01466   0.00000   0.00000   0.00044   0.00047  -0.01419
   D26        1.47418   0.00000   0.00000  -0.01397  -0.01404   1.46014
   D27       -0.59920   0.00001   0.00000  -0.01038  -0.01045  -0.60965
   D28       -2.66063   0.00000   0.00000  -0.01173  -0.01180  -2.67243
   D29       -1.60844  -0.00002   0.00000  -0.01751  -0.01744  -1.62587
   D30        2.60137  -0.00001   0.00000  -0.01392  -0.01384   2.58752
   D31        0.53994  -0.00001   0.00000  -0.01526  -0.01519   0.52475
   D32       -0.02530  -0.00003   0.00000  -0.11866  -0.11834  -0.14364
   D33       -1.01281   0.00000   0.00000  -0.00570  -0.00569  -1.01850
   D34        1.09304   0.00000   0.00000  -0.00579  -0.00578   1.08726
   D35       -3.09931   0.00000   0.00000  -0.00597  -0.00596  -3.10527
   D36        2.14615   0.00000   0.00000  -0.00667  -0.00668   2.13948
   D37       -2.03118   0.00000   0.00000  -0.00676  -0.00677  -2.03795
   D38        0.05965   0.00000   0.00000  -0.00694  -0.00694   0.05270
   D39        3.10712   0.00000   0.00000  -0.00080  -0.00080   3.10632
   D40       -1.13203   0.00000   0.00000  -0.00185  -0.00185  -1.13388
   D41        1.01107   0.00000   0.00000  -0.00240  -0.00240   1.00867
   D42       -1.13772   0.00000   0.00000  -0.00361  -0.00361  -1.14132
   D43        0.90632   0.00000   0.00000  -0.00466  -0.00466   0.90166
   D44        3.04942  -0.00001   0.00000  -0.00520  -0.00520   3.04421
   D45        1.02022   0.00000   0.00000  -0.00249  -0.00248   1.01774
   D46        3.06425   0.00000   0.00000  -0.00354  -0.00354   3.06072
   D47       -1.07583   0.00000   0.00000  -0.00408  -0.00408  -1.07991
         Item               Value     Threshold  Converged?
 Maximum Force            0.000142     0.000450     YES
 RMS     Force            0.000018     0.000300     YES
 Maximum Displacement     0.102901     0.001800     NO 
 RMS     Displacement     0.015163     0.001200     NO 
 Predicted change in Energy=-1.403462D-05
 GradGradGradGradGradGradGradGradGradGradGradGradGradGradGradGradGradGrad

                          Input orientation:                          
 ---------------------------------------------------------------------
 Center     Atomic      Atomic             Coordinates (Angstroms)
 Number     Number       Type             X           Y           Z
 ---------------------------------------------------------------------
      1          6           0       -0.013828    0.768820   -0.161756
      2          6           0       -1.210302    1.382205    0.063193
      3          6           0       -1.599835   -0.780976   -0.167138
      4          7           0       -0.288371   -0.579544   -0.305089
      5          1           0        1.031551    1.102442   -0.256793
      6          1           0       -1.447334    2.420434    0.217229
      7          1           0       -2.103238   -1.730209   -0.227865
      8          7           0       -2.191006    0.402084    0.055961
      9          6           0        0.731012   -1.636356   -0.513153
     10          6           0        1.330598   -2.090466    0.810536
     11          1           0        1.514448   -1.182822   -1.126701
     12          1           0        0.235685   -2.446694   -1.051561
     13          1           0        2.047305   -2.891002    0.616988
     14          1           0        1.879828   -1.262206    1.260994
     15          1           0        0.567254   -2.463094    1.500304
     16          6           0       -3.622723    0.622351    0.240334
     17          1           0       -3.798869    1.104502    1.201961
     18          1           0       -4.007416    1.252040   -0.562368
     19          1           0       -4.136737   -0.336927    0.221762
     20         17           0        3.094817    0.678070   -0.666595
 ---------------------------------------------------------------------
                    Distance matrix (angstroms):
                    1          2          3          4          5
     1  C    0.000000
     2  C    1.363230   0.000000
     3  C    2.217502   2.210009   0.000000
     4  N    1.383475   2.198647   1.333995   0.000000
     5  H    1.101431   2.281790   3.237204   2.138598   0.000000
     6  H    2.219550   1.076026   3.228006   3.258202   2.847222
     7  H    3.258091   3.251026   1.076172   2.150288   4.225121
     8  N    2.218559   1.386532   1.341226   2.171168   3.312581
     9  C    2.542271   3.634913   2.506841   1.482998   2.767139
    10  C    3.305805   4.367395   3.355301   2.479629   3.379834
    11  H    2.660010   3.926764   3.283443   2.071025   2.492461
    12  H    3.345675   4.241937   2.631721   2.078005   3.723093
    13  H    4.271885   5.401758   4.285871   3.412981   4.212225
    14  H    3.120131   4.239875   3.791991   2.760385   2.935100
    15  H    3.680403   4.473401   3.210320   2.745778   4.002000
    16  C    3.634179   2.535454   2.495483   3.586076   4.705304
    17  H    4.037195   2.841581   3.203936   4.175021   5.045881
    18  H    4.042615   2.869166   3.175816   4.153575   5.050440
    19  H    4.285807   3.397732   2.604668   3.891832   5.386279
    20  Cl   3.150677   4.422945   4.941460   3.627428   2.145948
                    6          7          8          9         10
     6  H    0.000000
     7  H    4.225655   0.000000
     8  N    2.157034   2.152890   0.000000
     9  C    4.662210   2.850117   3.607952   0.000000
    10  C    5.330773   3.605453   4.379941   1.522456   0.000000
    11  H    4.854046   3.767650   4.200120   1.093575   2.147209
    12  H    5.303897   2.581160   3.902688   1.091732   2.189324
    13  H    6.370531   4.391836   5.396521   2.141023   1.091782
    14  H    5.071616   4.277913   4.560006   2.146478   1.091137
    15  H    5.436331   3.264233   4.231237   2.182732   1.094223
    16  C    2.822402   2.839469   1.460248   4.962309   5.676256
    17  H    2.868987   3.599327   2.095693   5.565405   6.055778
    18  H    2.920091   3.554096   2.098595   5.549590   6.446053
    19  H    3.851746   2.505697   2.087940   5.091522   5.771767
    20  Cl   4.944503   5.745613   5.342114   3.311750   3.599886
                   11         12         13         14         15
    11  H    0.000000
    12  H    1.799515   0.000000
    13  H    2.498452   2.502684   0.000000
    14  H    2.416794   3.074757   1.759480   0.000000
    15  H    3.072039   2.573367   1.775923   1.795063   0.000000
    16  C    5.614086   5.096601   6.680923   5.905198   5.353821
    17  H    6.235852   5.828120   7.105208   6.152429   5.646218
    18  H    6.061188   5.650119   7.430701   6.656254   6.243752
    19  H    5.871097   5.019018   6.702378   6.175370   5.318156
    20  Cl   2.484388   4.252880   3.934862   2.992736   4.577219
                   16         17         18         19         20
    16  C    0.000000
    17  H    1.090057   0.000000
    18  H    1.090334   1.782727   0.000000
    19  H    1.088472   1.775574   1.776626   0.000000
    20  Cl   6.778714   7.155155   7.126150   7.356274   0.000000
 Stoichiometry    C6H11ClN2
 Framework group  C1[X(C6H11ClN2)]
 Deg. of freedom    54
 Full point group                 C1      NOp   1
 Largest Abelian subgroup         C1      NOp   1
 Largest concise Abelian subgroup C1      NOp   1
                         Standard orientation:                         
 ---------------------------------------------------------------------
 Center     Atomic      Atomic             Coordinates (Angstroms)
 Number     Number       Type             X           Y           Z
 ---------------------------------------------------------------------
      1          6           0       -0.101250    0.842064    0.100147
      2          6           0       -1.366955    1.311226    0.290597
      3          6           0       -1.523507   -0.803250   -0.332799
      4          7           0       -0.230304   -0.478478   -0.291666
      5          1           0        0.911548    1.268260    0.175969
      6          1           0       -1.716052    2.285209    0.586099
      7          1           0       -1.925455   -1.764240   -0.603134
      8          7           0       -2.243942    0.273116    0.015479
      9          6           0        0.900904   -1.399827   -0.557690
     10          6           0        1.413701   -2.027654    0.731009
     11          1           0        1.691568   -0.786742   -0.999146
     12          1           0        0.538706   -2.141127   -1.272649
     13          1           0        2.219013   -2.723718    0.488198
     14          1           0        1.835892   -1.249295    1.368577
     15          1           0        0.627984   -2.572924    1.262661
     16          6           0       -3.701173    0.344857    0.075924
     17          1           0       -4.012768    0.637886    1.078554
     18          1           0       -4.067064    1.071768   -0.649716
     19          1           0       -4.116651   -0.634128   -0.155891
     20         17           0        3.035452    1.084829   -0.069961
 ---------------------------------------------------------------------
 Rotational constants (GHZ):      2.3925376      0.6884956      0.5616997
 Standard basis: 6-311+G(d,p) (5D, 7F)
 There are   281 symmetry adapted cartesian basis functions of A   symmetry.
 There are   272 symmetry adapted basis functions of A   symmetry.
   272 basis functions,   429 primitive gaussians,   281 cartesian basis functions
    39 alpha electrons       39 beta electrons
       nuclear repulsion energy       513.8358889839 Hartrees.
 NAtoms=   20 NActive=   20 NUniq=   20 SFac= 1.00D+00 NAtFMM=   60 NAOKFM=F Big=F
 Integral buffers will be    131072 words long.
 Raffenetti 2 integral format.
 Two-electron integral symmetry is turned on.
 Nuclear repulsion after empirical dispersion term =      513.8034451582 Hartrees.
 One-electron integrals computed using PRISM.
 NBasis=   272 RedAO= T EigKep=  7.59D-06  NBF=   272
 NBsUse=   272 1.00D-06 EigRej= -1.00D+00 NBFU=   272
 Initial guess from the checkpoint file:  "CJS1_emim-cl_B_6-311+g-d-p-_gd3bj_opt-modredundant_unfrz.chk"
 B after Tr=     0.000000    0.000000    0.000000
         Rot=    0.999999   -0.001056    0.000129   -0.000329 Ang=  -0.13 deg.
 ExpMin= 4.38D-02 ExpMax= 1.06D+05 ExpMxC= 3.62D+03 IAcc=2 IRadAn=         4 AccDes= 0.00D+00
 Harris functional with IExCor=  402 and IRadAn=       4 diagonalized for initial guess.
 HarFok:  IExCor=  402 AccDes= 0.00D+00 IRadAn=         4 IDoV= 1 UseB2=F ITyADJ=14
 ICtDFT=  3500011 ScaDFX=  1.000000  1.000000  1.000000  1.000000
 FoFCou: FMM=F IPFlag=           0 FMFlag=      100000 FMFlg1=           0
         NFxFlg=           0 DoJE=T BraDBF=F KetDBF=T FulRan=T
         wScrn=  0.000000 ICntrl=     500 IOpCl=  0 I1Cent=   200000004 NGrid=           0
         NMat0=    1 NMatS0=      1 NMatT0=    0 NMatD0=    1 NMtDS0=    0 NMtDT0=    0
 Petite list used in FoFCou.
 Keep R1 ints in memory in canonical form, NReq=700735283.
 Requested convergence on RMS density matrix=1.00D-09 within 128 cycles.
 Requested convergence on MAX density matrix=1.00D-07.
 Requested convergence on             energy=1.00D-07.
[...]
    19  H    4.286403   3.398281   2.604802   3.891607   5.386840
    20  Cl   3.148423   4.417601   4.934804   3.624466   2.147800
                    6          7          8          9         10
     6  H    0.000000
     7  H    4.224506   0.000000
     8  N    2.156177   2.152400   0.000000
     9  C    4.663390   2.847842   3.607565   0.000000
    10  C    5.323744   3.652673   4.400612   1.521802   0.000000
    11  H    4.863612   3.744277   4.192518   1.093428   2.148512
    12  H    5.305491   2.551323   3.890981   1.092000   2.187082
    13  H    6.365719   4.427322   5.412160   2.140139   1.091853
    14  H    5.066459   4.331368   4.589422   2.147297   1.090878
    15  H    5.422031   3.340862   4.260071   2.181367   1.094276
    16  C    2.820696   2.839233   1.459999   4.961420   5.706659
    17  H    2.875564   3.593595   2.096199   5.563961   6.083070
    18  H    2.910206   3.559718   2.097940   5.549873   6.470156
    19  H    3.850481   2.505427   2.087847   5.090266   5.817497
    20  Cl   4.940698   5.738338   5.335217   3.316223   3.601471
                   11         12         13         14         15
    11  H    0.000000
    12  H    1.799536   0.000000
    13  H    2.499165   2.500032   0.000000
    14  H    2.421128   3.074223   1.759256   0.000000
    15  H    3.072425   2.568861   1.775959   1.794717   0.000000
    16  C    5.601484   5.080077   6.704914   5.946735   5.398876
    17  H    6.234090   5.804027   7.127137   6.199683   5.677822
    18  H    6.042729   5.646864   7.449865   6.682113   6.285960
    19  H    5.851300   4.994757   6.738967   6.234142   5.388962
    20  Cl   2.497080   4.262337   3.942915   2.991035   4.575826
                   16         17         18         19         20
    16  C    0.000000
    17  H    1.090112   0.000000
    18  H    1.090304   1.782753   0.000000
    19  H    1.088520   1.775643   1.776345   0.000000
    20  Cl   6.769643   7.170756   7.091748   7.347442   0.000000
 Stoichiometry    C6H11ClN2
 Framework group  C1[X(C6H11ClN2)]
 Deg. of freedom    54
 Full point group                 C1      NOp   1
 Largest Abelian subgroup         C1      NOp   1
 Largest concise Abelian subgroup C1      NOp   1
                         Standard orientation:                         
 ---------------------------------------------------------------------
 Center     Atomic      Atomic             Coordinates (Angstroms)
 Number     Number       Type             X           Y           Z
 ---------------------------------------------------------------------
      1          6           0       -0.100553    0.820979    0.163992
      2          6           0       -1.367413    1.294739    0.335422
      3          6           0       -1.523406   -0.799860   -0.350831
      4          7           0       -0.229788   -0.487663   -0.267675
      5          1           0        0.911574    1.246431    0.256579
      6          1           0       -1.718912    2.262408    0.648189
      7          1           0       -1.925308   -1.749815   -0.657920
      8          7           0       -2.245092    0.271294    0.009676
      9          6           0        0.899607   -1.407345   -0.544907
     10          6           0        1.438982   -2.022665    0.738190
     11          1           0        1.678586   -0.797225   -1.010235
     12          1           0        0.524110   -2.157733   -1.243752
     13          1           0        2.240647   -2.719320    0.484913
     14          1           0        1.871983   -1.239676    1.362252
     15          1           0        0.664477   -2.565393    1.288669
     16          6           0       -3.702576    0.352187    0.037892
     17          1           0       -4.037398    0.607906    1.043301
     18          1           0       -4.045010    1.109970   -0.667279
     19          1           0       -4.119286   -0.613372   -0.243043
     20         17           0        3.024168    1.100129   -0.102013
 ---------------------------------------------------------------------
 Rotational constants (GHZ):      2.3825454      0.6887681      0.5622663

 **********************************************************************

            Population analysis using the SCF density.

 **********************************************************************

 Orbital symmetries:
       Occupied  (A) (A) (A) (A) (A) (A) (A) (A) (A) (A) (A) (A)
                 (A) (A) (A) (A) (A) (A) (A) (A) (A) (A) (A) (A)
                 (A) (A) (A) (A) (A) (A) (A) (A) (A) (A) (A) (A)
                 (A) (A) (A)
       Virtual   (A) (A) (A) (A) (A) (A) (A) (A) (A) (A) (A) (A)
                 (A) (A) (A) (A) (A) (A) (A) (A) (A) (A) (A) (A)
                 (A) (A) (A) (A) (A) (A) (A) (A) (A) (A) (A) (A)
                 (A) (A) (A) (A) (A) (A) (A) (A) (A) (A) (A) (A)
                 (A) (A) (A) (A) (A) (A) (A) (A) (A) (A) (A) (A)
                 (A) (A) (A) (A) (A) (A) (A) (A) (A) (A) (A) (A)
                 (A) (A) (A) (A) (A) (A) (A) (A) (A) (A) (A) (A)
                 (A) (A) (A) (A) (A) (A) (A) (A) (A) (A) (A) (A)
                 (A) (A) (A) (A) (A) (A) (A) (A) (A) (A) (A) (A)
                 (A) (A) (A) (A) (A) (A) (A) (A) (A) (A) (A) (A)
                 (A) (A) (A) (A) (A) (A) (A) (A) (A) (A) (A) (A)
                 (A) (A) (A) (A) (A) (A) (A) (A) (A) (A) (A) (A)
                 (A) (A) (A) (A) (A) (A) (A) (A) (A) (A) (A) (A)
                 (A) (A) (A) (A) (A) (A) (A) (A) (A) (A) (A) (A)
                 (A) (A) (A) (A) (A) (A) (A) (A) (A) (A) (A) (A)
                 (A) (A) (A) (A) (A) (A) (A) (A) (A) (A) (A) (A)
                 (A) (A) (A) (A) (A) (A) (A) (A) (A) (A) (A) (A)
                 (A) (A) (A) (A) (A) (A) (A) (A) (A) (A) (A) (A)
                 (A) (A) (A) (A) (A) (A) (A) (A) (A) (A) (A) (A)
                 (A) (A) (A) (A) (A)
 The electronic state is 1-A.
 Alpha  occ. eigenvalues -- -101.37876 -14.45193 -14.43458 -10.31073 -10.27904
 Alpha  occ. eigenvalues --  -10.25628 -10.23906 -10.23154 -10.17231  -9.29262
 Alpha  occ. eigenvalues --   -7.05104  -7.05083  -7.05058  -1.11192  -0.99511
 Alpha  occ. eigenvalues --   -0.84167  -0.81144  -0.77023  -0.68965  -0.67065
 Alpha  occ. eigenvalues --   -0.64668  -0.63546  -0.59169  -0.54794  -0.52321
 Alpha  occ. eigenvalues --   -0.52107  -0.49725  -0.48499  -0.47940  -0.45789
 Alpha  occ. eigenvalues --   -0.45471  -0.41840  -0.39120  -0.37207  -0.34074
 Alpha  occ. eigenvalues --   -0.30160  -0.18443  -0.18232  -0.18062
 Alpha virt. eigenvalues --   -0.06835  -0.03917  -0.02037  -0.01598  -0.00210
 Alpha virt. eigenvalues --    0.00723   0.01166   0.01352   0.02801   0.03706
 Alpha virt. eigenvalues --    0.04479   0.05789   0.06318   0.06621   0.07262
 Alpha virt. eigenvalues --    0.08409   0.09099   0.09417   0.09960   0.10400
 Alpha virt. eigenvalues --    0.11390   0.12047   0.12592   0.13370   0.13944
 Alpha virt. eigenvalues --    0.14295   0.14849   0.15277   0.15646   0.16331
 Alpha virt. eigenvalues --    0.16703   0.17035   0.17706   0.17944   0.18665
 Alpha virt. eigenvalues --    0.19031   0.19464   0.20055   0.20808   0.21969
 Alpha virt. eigenvalues --    0.22768   0.23480   0.23930   0.24120   0.24338
 Alpha virt. eigenvalues --    0.25678   0.25887   0.27666   0.28119   0.28876
 Alpha virt. eigenvalues --    0.29503   0.30795   0.35803   0.36511   0.37079
 Alpha virt. eigenvalues --    0.38218   0.38928   0.39753   0.42082   0.42803
 Alpha virt. eigenvalues --    0.44776   0.47268   0.48144   0.49256   0.51972
 Alpha virt. eigenvalues --    0.52901   0.53937   0.54601   0.55242   0.55660
 Alpha virt. eigenvalues --    0.57681   0.57787   0.58254   0.59279   0.61688
 Alpha virt. eigenvalues --    0.62420   0.63130   0.63280   0.65529   0.65888
 Alpha virt. eigenvalues --    0.67022   0.67482   0.68004   0.70136   0.71324
 Alpha virt. eigenvalues --    0.72507   0.74472   0.76292   0.77614   0.78998
 Alpha virt. eigenvalues --    0.81725   0.84338   0.86253   0.89715   0.90274
 Alpha virt. eigenvalues --    0.93126   0.93973   0.94689   0.98873   0.99818
 Alpha virt. eigenvalues --    1.01559   1.02640   1.03344   1.04296   1.05284
 Alpha virt. eigenvalues --    1.06554   1.08606   1.09760   1.11532   1.13469
 Alpha virt. eigenvalues --    1.17688   1.22893   1.26345   1.26859   1.29187
 Alpha virt. eigenvalues --    1.32176   1.35453   1.36274   1.38375   1.41254
 Alpha virt. eigenvalues --    1.44617   1.46876   1.47820   1.48683   1.51047
 Alpha virt. eigenvalues --    1.53912   1.54935   1.55882   1.57251   1.57391
 Alpha virt. eigenvalues --    1.58715   1.59382   1.59975   1.61955   1.63757
 Alpha virt. eigenvalues --    1.66951   1.69099   1.69784   1.73698   1.74720
 Alpha virt. eigenvalues --    1.76065   1.76905   1.77844   1.78431   1.82518
 Alpha virt. eigenvalues --    1.84181   1.90097   1.93207   1.96789   1.99812
 Alpha virt. eigenvalues --    2.01032   2.05190   2.06685   2.08773   2.10525
 Alpha virt. eigenvalues --    2.13696   2.16107   2.18996   2.23424   2.25354
 Alpha virt. eigenvalues --    2.29096   2.30478   2.34244   2.36666   2.40150
 Alpha virt. eigenvalues --    2.40530   2.40888   2.43926   2.44813   2.45707
 Alpha virt. eigenvalues --    2.46771   2.48079   2.48691   2.50382   2.51747
 Alpha virt. eigenvalues --    2.54151   2.56426   2.57470   2.58778   2.58963
 Alpha virt. eigenvalues --    2.60035   2.62813   2.65233   2.65352   2.69310
 Alpha virt. eigenvalues --    2.71983   2.73454   2.76038   2.77105   2.81454
 Alpha virt. eigenvalues --    2.83608   2.85690   2.88099   2.91821   2.92663
 Alpha virt. eigenvalues --    2.95141   2.96096   3.07926   3.18808   3.26455
 Alpha virt. eigenvalues --    3.36516   3.52796   3.55220   3.60347   3.64325
 Alpha virt. eigenvalues --    3.67727   3.70048   3.77535   3.78296   3.82633
 Alpha virt. eigenvalues --    3.84647   3.86171   3.87121   3.87958   4.07042
 Alpha virt. eigenvalues --    4.21219   4.68292   4.88698   4.92139   5.21964
 Alpha virt. eigenvalues --    9.84885  23.70644  23.83999  23.85171  23.86860
 Alpha virt. eigenvalues --   23.96904  24.14722  25.98242  26.04346  26.16759
 Alpha virt. eigenvalues --   35.41169  35.56589 215.83023
          Condensed to atoms (all electrons):
               1          2          3          4          5          6
     1  C    7.910093  -2.203117   0.057946  -0.397000   0.439912  -0.016013
     2  C   -2.203117   7.961742  -0.240721   0.717515  -0.157255   0.430332
     3  C    0.057946  -0.240721   5.266643   0.396454   0.021376   0.010621
     4  N   -0.397000   0.717515   0.396454   7.081411  -0.062074   0.025740
     5  H    0.439912  -0.157255   0.021376  -0.062074   0.441054  -0.002162
     6  H   -0.016013   0.430332   0.010621   0.025740  -0.002162   0.480227
     7  H    0.037019  -0.021528   0.436976  -0.034582   0.000222  -0.000036
     8  N    0.765979  -0.437558   0.433449  -0.556229   0.033233  -0.077041
     9  C   -1.094098   0.667287  -0.215626  -0.022684  -0.018763  -0.001474
    10  C    0.139676  -0.040916   0.006197   0.014000   0.001311   0.000094
    11  H    0.019578  -0.010802   0.005479  -0.021433  -0.007851   0.000056
    12  H    0.056350  -0.031509   0.029977  -0.033642   0.000220   0.000028
    13  H    0.001497   0.000787   0.002733   0.025302   0.000062  -0.000001
    14  H    0.011982  -0.003477  -0.002732  -0.013155   0.000627   0.000013
    15  H   -0.012155   0.002556  -0.000827  -0.018075  -0.000471   0.000006
    16  C    0.236478  -0.308610  -0.145245  -0.084670   0.000396  -0.010102
    17  H    0.010039  -0.011537  -0.013934  -0.007870   0.000009  -0.000497
    18  H    0.011843  -0.014786  -0.016898  -0.005087   0.000013  -0.000450
    19  H   -0.001634   0.000654   0.028689   0.010465  -0.000001  -0.000037
    20  Cl   0.090591  -0.124145   0.037239   0.059001   0.111226   0.000617
               7          8          9         10         11         12
     1  C    0.037019   0.765979  -1.094098   0.139676   0.019578   0.056350
     2  C   -0.021528  -0.437558   0.667287  -0.040916  -0.010802  -0.031509
     3  C    0.436976   0.433449  -0.215626   0.006197   0.005479   0.029977
     4  N   -0.034582  -0.556229  -0.022684   0.014000  -0.021433  -0.033642
     5  H    0.000222   0.033233  -0.018763   0.001311  -0.007851   0.000220
     6  H   -0.000036  -0.077041  -0.001474   0.000094   0.000056   0.000028
     7  H    0.478851  -0.046580  -0.009328   0.005862   0.000216   0.000757
     8  N   -0.046580   6.916070  -0.238238   0.006750  -0.004993   0.018783
     9  C   -0.009328  -0.238238   7.438365  -0.625005   0.353559   0.257060
    10  C    0.005862   0.006750  -0.625005   5.683645  -0.009836   0.009502
    11  H    0.000216  -0.004993   0.353559  -0.009836   0.424779  -0.020106
    12  H    0.000757   0.018783   0.257060   0.009502  -0.020106   0.580471
    13  H   -0.000022  -0.000191  -0.099180   0.447902  -0.003707  -0.002909
    14  H   -0.000010   0.004325  -0.038327   0.426330  -0.008308   0.006598
    15  H   -0.000203  -0.004325   0.065120   0.332147   0.005598  -0.009373
    16  C   -0.005825   0.319305  -0.096148   0.018287   0.000664   0.005487
    17  H   -0.000078  -0.035281  -0.000562  -0.000271  -0.000002  -0.000001
    18  H   -0.000061  -0.033211  -0.000157  -0.000245  -0.000006  -0.000004
    19  H    0.001520  -0.048544   0.003390  -0.000158  -0.000002   0.000006
    20  Cl   0.000331   0.019752  -0.254373   0.024007   0.045337   0.005581
              13         14         15         16         17         18
     1  C    0.001497   0.011982  -0.012155   0.236478   0.010039   0.011843
     2  C    0.000787  -0.003477   0.002556  -0.308610  -0.011537  -0.014786
     3  C    0.002733  -0.002732  -0.000827  -0.145245  -0.013934  -0.016898
     4  N    0.025302  -0.013155  -0.018075  -0.084670  -0.007870  -0.005087
     5  H    0.000062   0.000627  -0.000471   0.000396   0.000009   0.000013
     6  H   -0.000001   0.000013   0.000006  -0.010102  -0.000497  -0.000450
     7  H   -0.000022  -0.000010  -0.000203  -0.005825  -0.000078  -0.000061
     8  N   -0.000191   0.004325  -0.004325   0.319305  -0.035281  -0.033211
     9  C   -0.099180  -0.038327   0.065120  -0.096148  -0.000562  -0.000157
    10  C    0.447902   0.426330   0.332147   0.018287  -0.000271  -0.000245
    11  H   -0.003707  -0.008308   0.005598   0.000664  -0.000002  -0.000006
    12  H   -0.002909   0.006598  -0.009373   0.005487  -0.000001  -0.000004
    13  H    0.514006  -0.014616  -0.031121   0.000058   0.000000   0.000000
    14  H   -0.014616   0.445642  -0.031122   0.000633  -0.000001   0.000001
    15  H   -0.031121  -0.031122   0.590951  -0.001315   0.000002   0.000001
    16  C    0.000058   0.000633  -0.001315   5.042015   0.425354   0.425411
    17  H    0.000000  -0.000001   0.000002   0.425354   0.501381  -0.033560
    18  H    0.000000   0.000001   0.000001   0.425411  -0.033560   0.496392
    19  H    0.000000   0.000001   0.000005   0.379389  -0.022060  -0.022403
    20  Cl  -0.000413   0.005529  -0.000368   0.003900   0.000001   0.000003
              19         20
     1  C   -0.001634   0.090591
     2  C    0.000654  -0.124145
     3  C    0.028689   0.037239
     4  N    0.010465   0.059001
     5  H   -0.000001   0.111226
     6  H   -0.000037   0.000617
     7  H    0.001520   0.000331
     8  N   -0.048544   0.019752
     9  C    0.003390  -0.254373
    10  C   -0.000158   0.024007
    11  H   -0.000002   0.045337
    12  H    0.000006   0.005581
    13  H    0.000000  -0.000413
    14  H    0.000001   0.005529
    15  H    0.000005  -0.000368
    16  C    0.379389   0.003900
    17  H   -0.022060   0.000001
    18  H   -0.022403   0.000003
    19  H    0.509197  -0.000002
    20  Cl  -0.000002  17.714562
 Mulliken charges:
               1
     1  C   -0.064963
     2  C   -0.174911
     3  C   -0.097794
     4  N   -0.073385
     5  H    0.198917
     6  H    0.160079
     7  H    0.156500
     8  N   -0.035455
     9  C   -0.070818
    10  C   -0.439279
    11  H    0.231780
    12  H    0.126722
    13  H    0.159814
    14  H    0.210067
    15  H    0.112970
    16  C   -0.205461
    17  H    0.188867
    18  H    0.193205
    19  H    0.161524
    20  Cl  -0.738376
 Sum of Mulliken charges =   0.00000
 Mulliken charges with hydrogens summed into heavy atoms:
               1
     1  C    0.133953
     2  C   -0.014833
     3  C    0.058705
     4  N   -0.073385
     8  N   -0.035455
     9  C    0.287684
    10  C    0.043572
    16  C    0.338134
    20  Cl  -0.738376
 Electronic spatial extent (au):  <R**2>=           1977.0063
 Charge=              0.0000 electrons
 Dipole moment (field-independent basis, Debye):
    X=            -15.4673    Y=             -4.8538    Z=             -0.0260  Tot=             16.2110
 Quadrupole moment (field-independent basis, Debye-Ang):
   XX=            -76.2936   YY=            -60.8679   ZZ=            -64.7605
   XY=            -15.6877   XZ=              1.2816   YZ=              3.5381
 Traceless Quadrupole moment (field-independent basis, Debye-Ang):
   XX=             -8.9863   YY=              6.4394   ZZ=              2.5468
   XY=            -15.6877   XZ=              1.2816   YZ=              3.5381
 Octapole moment (field-independent basis, Debye-Ang**2):
  XXX=           -194.0877  YYY=            -11.8606  ZZZ=             -0.6559  XYY=            -29.6395
  XXY=            -40.0756  XXZ=              3.5219  XZZ=             -8.7900  YZZ=             -3.6071
  YYZ=             -0.2396  XYZ=             -1.7938
 Hexadecapole moment (field-independent basis, Debye-Ang**3):
 XXXX=          -2061.7451 YYYY=           -598.4689 ZZZZ=           -155.2106 XXXY=           -164.6741
 XXXZ=             11.5756 YYYX=            -48.7123 YYYZ=             18.4223 ZZZX=             -0.5859
 ZZZY=              3.6723 XXYY=           -442.9452 XXZZ=           -354.1199 YYZZ=           -127.1633
 XXYZ=             12.6225 YYXZ=              2.6640 ZZXY=            -10.0629
 N-N= 5.137568593979D+02 E-N=-2.921979972385D+03  KE= 8.024378747154D+02
 1\1\GINC-CX1-1-11-3\FOpt\RB3LYP\6-311+G(d,p)\C6H11Cl1N2\CJS14\19-Apr-2
 015\0\\# opt=modredundant b3lyp/6-311+g(d,p) geom=checkpoint integral=
 grid=ultrafine scf=conver=9 empiricaldispersion=gd3bj\\Emim+ (optimise
 d with b3lyp+gd3bj / aug-cc-pvtz) and Cl- in the back position created
  on; Thu Apr 16 19:11:52 BST 2015, from; CJS1_emim-cl_B_init.com creat
 ed on; Sun Apr 19 10:11:24 BST 2015, from; CJS1_emim-cl_B_6-311+g-d-p-
 _gd3bj_opt-modredundant_difrz_err.com\\0,1\C,-0.0113829866,0.757830770
 3,-0.1134322391\C,-1.2082310823,1.376138746,0.0963740994\C,-1.60747715
 49,-0.7801397595,-0.1750769045\N,-0.2926193994,-0.5867347272,-0.282643
 6079\H,1.0347928871,1.0914802697,-0.203867938\H,-1.44359872,2.41312959
 81,0.2607225568\H,-2.115886279,-1.7248516341,-0.2604228135\N,-2.195588
 0209,0.4028664824,0.054680339\C,0.7207698774,-1.6468794134,-0.50022643
 02\C,1.3576062916,-2.080353207,0.8121843236\H,1.4849148358,-1.20610627
 97,-1.1462813868\H,0.2080057276,-2.4665327452,-1.0078735531\H,2.066842
 5453,-2.885626,0.6105343416\H,1.9210447595,-1.2473607832,1.2348841849\
 H,0.613193063,-2.4407616122,1.528699949\C,-3.6287712734,0.6300610522,0
 .2158227299\H,-3.8218330099,1.0878163534,1.1861486062\H,-3.9914475854,
 1.2840084174,-0.5776390994\H,-4.1499822324,-0.3239541579,0.1604150364\
 Cl,3.0724846741,0.6786213066,-0.7427580292\\Version=ES64L-G09RevD.01\S
 tate=1-A\HF=-805.1052603\RMSD=2.742e-10\RMSF=2.785e-05\Dipole=-6.17491
 08,-1.275953,0.9592782\Quadrupole=-8.029586,7.6948093,0.3347767,-9.678
 3014,4.0861852,2.6774459\PG=C01 [X(C6H11Cl1N2)]\\@


 EDUCATION DOESN'T COST 
           ... IT PAYS!

 -- POSTMARK, UNIV. OF MISSISSIPPI, DEC 78
 Job cpu time:       0 days  0 hours 58 minutes 28.5 seconds.
 File lengths (MBytes):  RWF=     35 Int=      0 D2E=      0 Chk=      6 Scr=      1
 Normal termination of Gaussian 09 at Sun Apr 19 10:25:27 2015.
