 Entering Gaussian System, Link 0=g09
 Input=/work/cjs14/CJS1_emim-cl_BM_6-311+g-d-p-_gd3bj_opt-modredundant_unfrz.com
 Output=/work/cjs14/CJS1_emim-cl_BM_6-311+g-d-p-_gd3bj_opt-modredundant_unfrz.log
 Initial command:
 /apps/gaussian/g09_d01/g09/l1.exe /tmp/pbs.9401329.cx1b/Gau-4634.inp -scrdir=/tmp/pbs.9401329.cx1b/
 Entering Link 1 = /apps/gaussian/g09_d01/g09/l1.exe PID=      4635.
  
 Copyright (c) 1988,1990,1992,1993,1995,1998,2003,2009,2013,
            Gaussian, Inc.  All Rights Reserved.
  
 This is part of the Gaussian(R) 09 program.  It is based on
 the Gaussian(R) 03 system (copyright 2003, Gaussian, Inc.),
 the Gaussian(R) 98 system (copyright 1998, Gaussian, Inc.),
 the Gaussian(R) 94 system (copyright 1995, Gaussian, Inc.),
 the Gaussian 92(TM) system (copyright 1992, Gaussian, Inc.),
 the Gaussian 90(TM) system (copyright 1990, Gaussian, Inc.),
 the Gaussian 88(TM) system (copyright 1988, Gaussian, Inc.),
 the Gaussian 86(TM) system (copyright 1986, Carnegie Mellon
 University), and the Gaussian 82(TM) system (copyright 1983,
 Carnegie Mellon University). Gaussian is a federally registered
 trademark of Gaussian, Inc.
  
 This software contains proprietary and confidential information,
 including trade secrets, belonging to Gaussian, Inc.
  
 This software is provided under written license and may be
 used, copied, transmitted, or stored only in accord with that
 written license.
  
 The following legend is applicable only to US Government
 contracts under FAR:
  
                    RESTRICTED RIGHTS LEGEND
  
 Use, reproduction and disclosure by the US Government is
 subject to restrictions as set forth in subparagraphs (a)
 and (c) of the Commercial Computer Software - Restricted
 Rights clause in FAR 52.227-19.
  
 Gaussian, Inc.
 340 Quinnipiac St., Bldg. 40, Wallingford CT 06492
  
  
 ---------------------------------------------------------------
 Warning -- This program may not be used in any manner that
 competes with the business of Gaussian, Inc. or will provide
 assistance to any competitor of Gaussian, Inc.  The licensee
 of this program is prohibited from giving any competitor of
 Gaussian, Inc. access to this program.  By using this program,
 the user acknowledges that Gaussian, Inc. is engaged in the
 business of creating and licensing software in the field of
 computational chemistry and represents and warrants to the
 licensee that it is not a competitor of Gaussian, Inc. and that
 it will not use this program in any manner prohibited above.
 ---------------------------------------------------------------
  

 Cite this work as:
 Gaussian 09, Revision D.01,
 M. J. Frisch, G. W. Trucks, H. B. Schlegel, G. E. Scuseria, 
 M. A. Robb, J. R. Cheeseman, G. Scalmani, V. Barone, B. Mennucci, 
 G. A. Petersson, H. Nakatsuji, M. Caricato, X. Li, H. P. Hratchian, 
 A. F. Izmaylov, J. Bloino, G. Zheng, J. L. Sonnenberg, M. Hada, 
 M. Ehara, K. Toyota, R. Fukuda, J. Hasegawa, M. Ishida, T. Nakajima, 
 Y. Honda, O. Kitao, H. Nakai, T. Vreven, J. A. Montgomery, Jr., 
 J. E. Peralta, F. Ogliaro, M. Bearpark, J. J. Heyd, E. Brothers, 
 K. N. Kudin, V. N. Staroverov, T. Keith, R. Kobayashi, J. Normand, 
 K. Raghavachari, A. Rendell, J. C. Burant, S. S. Iyengar, J. Tomasi, 
 M. Cossi, N. Rega, J. M. Millam, M. Klene, J. E. Knox, J. B. Cross, 
 V. Bakken, C. Adamo, J. Jaramillo, R. Gomperts, R. E. Stratmann, 
 O. Yazyev, A. J. Austin, R. Cammi, C. Pomelli, J. W. Ochterski, 
 R. L. Martin, K. Morokuma, V. G. Zakrzewski, G. A. Voth, 
 P. Salvador, J. J. Dannenberg, S. Dapprich, A. D. Daniels, 
 O. Farkas, J. B. Foresman, J. V. Ortiz, J. Cioslowski, 
 and D. J. Fox, Gaussian, Inc., Wallingford CT, 2013.
 
 ******************************************
 Gaussian 09:  ES64L-G09RevD.01 24-Apr-2013
                17-Apr-2015 
 ******************************************
 %nprocshared=8
 Will use up to    8 processors via shared memory.
 %mem=15000MB
 %chk=CJS1_emim-cl_BM_6-311+g-d-p-_gd3bj_opt-modredundant_unfrz.chk
 ----------------------------------------------------------------------
 # opt=modredundant b3lyp/6-311+g(d,p) geom=checkpoint integral=grid=ul
 trafine scf=conver=9 empiricaldispersion=gd3bj
 ----------------------------------------------------------------------
 1/14=-1,18=120,19=15,26=4,29=2,38=1/1,3;
 2/9=110,12=2,40=1/2;
 3/5=4,6=6,7=111,11=2,14=-4,16=1,25=1,30=1,71=1,74=-5,75=-5,124=41/1,2,3;
 4//1;
 5/5=2,6=9,38=5/2;
 6/7=2,8=2,9=2,10=2,28=1/1;
 7//1,2,3,16;
 1/14=-1,18=20,19=15,26=4/3(2);
 2/9=110/2;
 99//99;
 2/9=110/2;
 3/5=4,6=6,7=111,11=2,14=-2,16=1,25=1,30=1,71=1,74=-5,75=-5,124=41/1,2,3;
 4/5=5,16=3,69=1/1;
 5/5=2,6=9,38=5/2;
 7//1,2,3,16;
 1/14=-1,18=20,19=15,26=4/3(-5);
 2/9=110/2;
 6/7=2,8=2,9=2,10=2,19=2,28=1/1;
 99/9=1/99;
 ----------------------------------------------------------------------
 Emim+ (optimised with b3lyp+gd3bj / aug-cc-pvtz) and Cl- in the back-m
 ethyl position created on; Thu Apr 16 19:11:53 BST 2015, from; CJS1_em
 im-cl_BM_init.com created on; Fri Apr 17 20:54:16 BST 2015, from; CJS1
 _emim-cl_BM_6-311+g-d-p-_gd3bj_opt-modredundant_difrz.com
 ----------------------------------------------------------------------
 Structure from the checkpoint file:  "CJS1_emim-cl_BM_6-311+g-d-p-_gd3bj_opt-modredundant_unfrz.chk"
 Charge =  0 Multiplicity = 1
 Redundant internal coordinates found in file.
 C,0,-0.3295852114,1.6660615803,-0.1108623832
 C,0,-1.669018469,1.5605601072,0.1208384993
 C,0,-0.8464772192,-0.4800453805,-0.1695250663
 N,0,0.1692983209,0.3851451044,-0.294516591
 H,0,0.3043438669,2.5335752151,-0.1659203488
 H,0,-2.4940866316,2.2667773066,0.320401138
 H,0,-0.7705631686,-1.5497651295,-0.2596431085
 N,0,-1.9623592091,0.2080586252,0.0792476654
 C,0,1.577824836,0.0297940755,-0.5114823763
 C,0,2.4080468382,0.1682696711,0.760531515
 H,0,1.9573532624,0.6753723435,-1.3054842713
 H,0,1.5969821114,-0.9946566462,-0.8858932215
 H,0,3.4449065645,-0.1053782556,0.5543695201
 H,0,2.3944792188,1.1949308332,1.1309972604
 H,0,2.0279697777,-0.4857828056,1.5479462399
 C,0,-3.3008658954,-0.3738410763,0.2710628095
 H,0,-3.6866782747,-0.0621499764,1.2392441315
 H,0,-3.974689466,0.0289491359,-0.4817217104
 H,0,-3.2126292326,-1.4579024552,0.1962962933
 Cl,0,-4.5371678995,2.6075436173,0.771350525
 Recover connectivity data from disk.
 The following ModRedundant input section has been read:
 D      20       3       4       1 A                                           
 

 GradGradGradGradGradGradGradGradGradGradGradGradGradGradGradGradGradGrad
 Berny optimization.
 Initialization pass.
                           ----------------------------
                           !    Initial Parameters    !
                           ! (Angstroms and Degrees)  !
 --------------------------                            --------------------------
 ! Name  Definition              Value          Derivative Info.                !
 --------------------------------------------------------------------------------
 ! R1    R(1,2)                  1.3634         estimate D2E/DX2                !
 ! R2    R(1,4)                  1.3869         estimate D2E/DX2                !
 ! R3    R(1,5)                  1.0759         estimate D2E/DX2                !
 ! R4    R(2,6)                  1.1042         estimate D2E/DX2                !
 ! R5    R(2,8)                  1.3846         estimate D2E/DX2                !
 ! R6    R(3,4)                  1.3401         estimate D2E/DX2                !
 ! R7    R(3,7)                  1.0762         estimate D2E/DX2                !
 ! R8    R(3,8)                  1.3344         estimate D2E/DX2                !
 ! R9    R(4,9)                  1.4688         estimate D2E/DX2                !
 ! R10   R(6,20)                 2.1198         estimate D2E/DX2                !
 ! R11   R(8,16)                 1.4721         estimate D2E/DX2                !
 ! R12   R(9,10)                 1.5253         estimate D2E/DX2                !
 ! R13   R(9,11)                 1.0914         estimate D2E/DX2                !
 ! R14   R(9,12)                 1.0909         estimate D2E/DX2                !
 ! R15   R(10,13)                1.092          estimate D2E/DX2                !
 ! R16   R(10,14)                1.0915         estimate D2E/DX2                !
 ! R17   R(10,15)                1.0919         estimate D2E/DX2                !
 ! R18   R(16,17)                1.0878         estimate D2E/DX2                !
 ! R19   R(16,18)                1.0876         estimate D2E/DX2                !
 ! R20   R(16,19)                1.0902         estimate D2E/DX2                !
 ! R21   R(17,20)                2.8407         estimate D2E/DX2                !
 ! R22   R(18,20)                2.9216         estimate D2E/DX2                !
 ! A1    A(2,1,4)              107.724          estimate D2E/DX2                !
 ! A2    A(2,1,5)              130.5384         estimate D2E/DX2                !
 ! A3    A(4,1,5)              121.7365         estimate D2E/DX2                !
 ! A4    A(1,2,6)              135.6658         estimate D2E/DX2                !
 ! A5    A(1,2,8)              106.1779         estimate D2E/DX2                !
 ! A6    A(6,2,8)              118.1559         estimate D2E/DX2                !
 ! A7    A(4,3,7)              125.4814         estimate D2E/DX2                !
 ! A8    A(4,3,8)              108.5614         estimate D2E/DX2                !
 ! A9    A(7,3,8)              125.9567         estimate D2E/DX2                !
 ! A10   A(1,4,3)              108.1361         estimate D2E/DX2                !
 ! A11   A(1,4,9)              126.0143         estimate D2E/DX2                !
 ! A12   A(3,4,9)              125.7645         estimate D2E/DX2                !
 ! A13   A(2,6,20)             149.4742         estimate D2E/DX2                !
 ! A14   A(2,8,3)              109.3998         estimate D2E/DX2                !
 ! A15   A(2,8,16)             125.09           estimate D2E/DX2                !
 ! A16   A(3,8,16)             125.5089         estimate D2E/DX2                !
 ! A17   A(4,9,10)             112.1373         estimate D2E/DX2                !
 ! A18   A(4,9,11)             107.3271         estimate D2E/DX2                !
 ! A19   A(4,9,12)             107.142          estimate D2E/DX2                !
 ! A20   A(10,9,11)            111.3284         estimate D2E/DX2                !
 ! A21   A(10,9,12)            111.2185         estimate D2E/DX2                !
 ! A22   A(11,9,12)            107.4381         estimate D2E/DX2                !
 ! A23   A(9,10,13)            109.6716         estimate D2E/DX2                !
 ! A24   A(9,10,14)            111.2027         estimate D2E/DX2                !
 ! A25   A(9,10,15)            110.9497         estimate D2E/DX2                !
 ! A26   A(13,10,14)           108.1542         estimate D2E/DX2                !
 ! A27   A(13,10,15)           108.4543         estimate D2E/DX2                !
 ! A28   A(14,10,15)           108.3196         estimate D2E/DX2                !
 ! A29   A(8,16,17)            108.9772         estimate D2E/DX2                !
 ! A30   A(8,16,18)            109.071          estimate D2E/DX2                !
 ! A31   A(8,16,19)            108.0914         estimate D2E/DX2                !
 ! A32   A(17,16,18)           106.8679         estimate D2E/DX2                !
 ! A33   A(17,16,19)           112.0027         estimate D2E/DX2                !
 ! A34   A(18,16,19)           111.7724         estimate D2E/DX2                !
 ! A35   A(16,17,20)           103.2304         estimate D2E/DX2                !
 ! A36   A(16,18,20)            98.585          estimate D2E/DX2                !
 ! A37   A(6,20,17)             66.1344         estimate D2E/DX2                !
 ! A38   A(6,20,18)             65.2491         estimate D2E/DX2                !
 ! A39   A(17,20,18)            35.2674         estimate D2E/DX2                !
 ! D1    D(4,1,2,6)           -179.9977         estimate D2E/DX2                !
 ! D2    D(4,1,2,8)              0.2411         estimate D2E/DX2                !
 ! D3    D(5,1,2,6)             -0.3891         estimate D2E/DX2                !
 ! D4    D(5,1,2,8)            179.8497         estimate D2E/DX2                !
 ! D5    D(2,1,4,3)             -0.3171         estimate D2E/DX2                !
 ! D6    D(2,1,4,9)           -177.107          estimate D2E/DX2                !
 ! D7    D(5,1,4,3)           -179.9674         estimate D2E/DX2                !
 ! D8    D(5,1,4,9)              3.2427         estimate D2E/DX2                !
 ! D9    D(1,2,6,20)          -176.8348         estimate D2E/DX2                !
 ! D10   D(8,2,6,20)             2.9051         estimate D2E/DX2                !
 ! D11   D(1,2,8,3)             -0.0825         estimate D2E/DX2                !
 ! D12   D(1,2,8,16)          -179.6902         estimate D2E/DX2                !
 ! D13   D(6,2,8,3)           -179.8932         estimate D2E/DX2                !
 ! D14   D(6,2,8,16)             0.4991         estimate D2E/DX2                !
 ! D15   D(7,3,4,1)           -179.966          estimate D2E/DX2                !
 ! D16   D(7,3,4,9)             -3.166          estimate D2E/DX2                !
 ! D17   D(8,3,4,1)              0.2658         estimate D2E/DX2                !
 ! D18   D(8,3,4,9)            177.0658         estimate D2E/DX2                !
 ! D19   D(20,3,4,1)            -0.4677         estimate D2E/DX2                !
 ! D20   D(4,3,8,2)             -0.1154         estimate D2E/DX2                !
 ! D21   D(4,3,8,16)           179.4902         estimate D2E/DX2                !
 ! D22   D(7,3,8,2)           -179.8822         estimate D2E/DX2                !
 ! D23   D(7,3,8,16)            -0.2766         estimate D2E/DX2                !
 ! D24   D(1,4,9,10)            72.92           estimate D2E/DX2                !
 ! D25   D(1,4,9,11)           -49.6441         estimate D2E/DX2                !
 ! D26   D(1,4,9,12)          -164.7786         estimate D2E/DX2                !
 ! D27   D(3,4,9,10)          -103.3196         estimate D2E/DX2                !
 ! D28   D(3,4,9,11)           134.1162         estimate D2E/DX2                !
 ! D29   D(3,4,9,12)            18.9817         estimate D2E/DX2                !
 ! D30   D(2,6,20,17)           16.0083         estimate D2E/DX2                !
 ! D31   D(2,6,20,18)          -22.809          estimate D2E/DX2                !
 ! D32   D(2,8,16,17)          -57.2649         estimate D2E/DX2                !
 ! D33   D(2,8,16,18)           59.0656         estimate D2E/DX2                !
 ! D34   D(2,8,16,19)         -179.2115         estimate D2E/DX2                !
 ! D35   D(3,8,16,17)          123.1897         estimate D2E/DX2                !
 ! D36   D(3,8,16,18)         -120.4798         estimate D2E/DX2                !
 ! D37   D(3,8,16,19)            1.2431         estimate D2E/DX2                !
 ! D38   D(4,9,10,13)          179.9725         estimate D2E/DX2                !
 ! D39   D(4,9,10,14)          -60.4504         estimate D2E/DX2                !
 ! D40   D(4,9,10,15)           60.1818         estimate D2E/DX2                !
 ! D41   D(11,9,10,13)         -59.7618         estimate D2E/DX2                !
 ! D42   D(11,9,10,14)          59.8153         estimate D2E/DX2                !
 ! D43   D(11,9,10,15)        -179.5525         estimate D2E/DX2                !
 ! D44   D(12,9,10,13)          60.0199         estimate D2E/DX2                !
 ! D45   D(12,9,10,14)         179.5971         estimate D2E/DX2                !
 ! D46   D(12,9,10,15)         -59.7708         estimate D2E/DX2                !
 ! D47   D(8,16,17,20)          77.7605         estimate D2E/DX2                !
 ! D48   D(18,16,17,20)        -39.9706         estimate D2E/DX2                !
 ! D49   D(19,16,17,20)       -162.6927         estimate D2E/DX2                !
 ! D50   D(8,16,18,20)         -79.7236         estimate D2E/DX2                !
 ! D51   D(17,16,18,20)         37.9459         estimate D2E/DX2                !
 ! D52   D(19,16,18,20)        160.8116         estimate D2E/DX2                !
 ! D53   D(16,17,20,6)         -57.0181         estimate D2E/DX2                !
 ! D54   D(16,17,20,18)         23.3512         estimate D2E/DX2                !
 ! D55   D(16,18,20,6)          60.1534         estimate D2E/DX2                !
 ! D56   D(16,18,20,17)        -22.9723         estimate D2E/DX2                !
 --------------------------------------------------------------------------------
 Trust Radius=3.00D-01 FncErr=1.00D-07 GrdErr=1.00D-06
 Number of steps in this run=    120 maximum allowed number of steps=    120.
 GradGradGradGradGradGradGradGradGradGradGradGradGradGradGradGradGradGrad

                          Input orientation:                          
 ---------------------------------------------------------------------
 Center     Atomic      Atomic             Coordinates (Angstroms)
 Number     Number       Type             X           Y           Z
 ---------------------------------------------------------------------
      1          6           0       -0.329585    1.666062   -0.110862
      2          6           0       -1.669018    1.560560    0.120838
      3          6           0       -0.846477   -0.480045   -0.169525
      4          7           0        0.169298    0.385145   -0.294517
      5          1           0        0.304344    2.533575   -0.165920
      6          1           0       -2.494087    2.266777    0.320401
      7          1           0       -0.770563   -1.549765   -0.259643
      8          7           0       -1.962359    0.208059    0.079248
      9          6           0        1.577825    0.029794   -0.511482
     10          6           0        2.408047    0.168270    0.760532
     11          1           0        1.957353    0.675372   -1.305484
     12          1           0        1.596982   -0.994657   -0.885893
     13          1           0        3.444907   -0.105378    0.554370
     14          1           0        2.394479    1.194931    1.130997
     15          1           0        2.027970   -0.485783    1.547946
     16          6           0       -3.300866   -0.373841    0.271063
     17          1           0       -3.686678   -0.062150    1.239244
     18          1           0       -3.974689    0.028949   -0.481722
     19          1           0       -3.212629   -1.457902    0.196296
     20         17           0       -4.537168    2.607544    0.771351
 ---------------------------------------------------------------------
                    Distance matrix (angstroms):
                    1          2          3          4          5
     1  C    0.000000
     2  C    1.363414   0.000000
     3  C    2.208256   2.219224   0.000000
     4  N    1.386853   2.221155   1.340141   0.000000
     5  H    1.075861   2.218817   3.225881   2.156508   0.000000
     6  H    2.287338   1.104222   3.240321   3.318476   2.852876
     7  H    3.249329   3.259772   1.076190   2.151379   4.223491
     8  N    2.197240   1.384572   1.334379   2.171410   3.256697
     9  C    2.544814   3.644868   2.500822   1.468773   2.830210
    10  C    3.239959   4.355473   3.446338   2.484382   3.298265
    11  H    2.763815   3.996064   3.238342   2.074471   2.735683
    12  H    3.375168   4.267247   2.597788   2.071681   3.825924
    13  H    4.222241   5.395881   4.368109   3.419186   4.164856
    14  H    3.030628   4.203108   3.873074   2.763923   2.800470
    15  H    3.597241   4.460031   3.348460   2.758232   3.876177
    16  C    3.624304   2.535232   2.495881   3.596940   4.652049
    17  H    4.009935   2.820456   3.197813   4.173853   4.963923
    18  H    4.013036   2.832848   3.184691   4.163479   4.968200
    19  H    4.262093   3.391098   2.586253   3.882674   5.332185
    20  Cl   4.400959   3.121798   4.903025   5.312810   4.931955
                    6          7          8          9         10
     6  H    0.000000
     7  H    4.227645   0.000000
     8  N    2.139909   2.150621   0.000000
     9  C    4.719808   2.841365   3.593556   0.000000
    10  C    5.350548   3.754459   4.423367   1.525275   0.000000
    11  H    4.999139   3.672404   4.183301   1.091445   2.174557
    12  H    5.369259   2.511096   3.879037   1.090894   2.172772
    13  H    6.399492   4.529796   5.437141   2.154137   1.092000
    14  H    5.069911   4.414151   4.589350   2.173064   1.091541
    15  H    5.434377   3.497317   4.308273   2.170183   1.091909
    16  C    2.761556   2.840225   1.472074   4.957512   5.755445
    17  H    2.773166   3.600471   2.095681   5.548738   6.117837
    18  H    2.800618   3.578838   2.096721   5.552594   6.503993
    19  H    3.795385   2.485962   2.086217   5.065831   5.878333
    20  Cl   2.119825   5.703812   3.586945   6.758964   7.361126
                   11         12         13         14         15
    11  H    0.000000
    12  H    1.759239   0.000000
    13  H    2.506281   2.505992   0.000000
    14  H    2.529321   3.081906   1.768248   0.000000
    15  H    3.081450   2.523545   1.771895   1.770021   0.000000
    16  C    5.588848   5.070786   6.757054   5.969714   5.480826
    17  H    6.234956   5.770862   7.164525   6.210672   5.738638
    18  H    6.023751   5.679318   7.492792   6.672832   6.357391
    19  H    5.790935   4.951575   6.802964   6.273026   5.498714
    20  Cl   7.086983   7.304115   8.433299   7.083259   7.298822
                   16         17         18         19         20
    16  C    0.000000
    17  H    1.087832   0.000000
    18  H    1.087641   1.747276   0.000000
    19  H    1.090213   1.805710   1.803101   0.000000
    20  Cl   3.266096   2.840690   2.921596   4.314272   0.000000
 Stoichiometry    C6H11ClN2
 Framework group  C1[X(C6H11ClN2)]
 Deg. of freedom    54
 Full point group                 C1      NOp   1
 Largest Abelian subgroup         C1      NOp   1
 Largest concise Abelian subgroup C1      NOp   1
                         Standard orientation:                         
 ---------------------------------------------------------------------
 Center     Atomic      Atomic             Coordinates (Angstroms)
 Number     Number       Type             X           Y           Z
 ---------------------------------------------------------------------
      1          6           0       -0.742803   -1.046675   -0.397521
      2          6           0        0.516038   -0.557247   -0.211301
      3          6           0       -0.913624    1.137833   -0.123408
      4          7           0       -1.623828    0.023065   -0.344493
      5          1           0       -1.083881   -2.052857   -0.567053
      6          1           0        1.532223   -0.987141   -0.168117
      7          1           0       -1.320575    2.129906   -0.031938
      8          7           0        0.377237    0.809865   -0.041665
      9          6           0       -3.087440   -0.058137   -0.436921
     10          6           0       -3.712382   -0.632661    0.830293
     11          1           0       -3.324625   -0.669955   -1.309088
     12          1           0       -3.453501    0.950126   -0.635553
     13          1           0       -4.797838   -0.674475    0.718488
     14          1           0       -3.351314   -1.644200    1.024921
     15          1           0       -3.477883   -0.011780    1.697347
     16          6           0        1.486026    1.751476    0.184076
     17          1           0        2.037750    1.442621    1.069280
     18          1           0        2.176778    1.694612   -0.654131
     19          1           0        1.064462    2.750903    0.293590
     20         17           0        3.614685   -0.725047    0.129062
 ---------------------------------------------------------------------
 Rotational constants (GHZ):      3.3121145      0.5434261      0.4889132
 Standard basis: 6-311+G(d,p) (5D, 7F)
 There are   281 symmetry adapted cartesian basis functions of A   symmetry.
 There are   272 symmetry adapted basis functions of A   symmetry.
   272 basis functions,   429 primitive gaussians,   281 cartesian basis functions
    39 alpha electrons       39 beta electrons
       nuclear repulsion energy       504.5020703827 Hartrees.
 NAtoms=   20 NActive=   20 NUniq=   20 SFac= 1.00D+00 NAtFMM=   60 NAOKFM=F Big=F
 Integral buffers will be    131072 words long.
 Raffenetti 2 integral format.
 Two-electron integral symmetry is turned on.
 Nuclear repulsion after empirical dispersion term =      504.4703436538 Hartrees.
 One-electron integrals computed using PRISM.
 NBasis=   272 RedAO= T EigKep=  7.35D-06  NBF=   272
 NBsUse=   272 1.00D-06 EigRej= -1.00D+00 NBFU=   272
 ExpMin= 4.38D-02 ExpMax= 1.06D+05 ExpMxC= 3.62D+03 IAcc=3 IRadAn=         5 AccDes= 0.00D+00
 Harris functional with IExCor=  402 and IRadAn=       5 diagonalized for initial guess.
 HarFok:  IExCor=  402 AccDes= 0.00D+00 IRadAn=         5 IDoV= 1 UseB2=F ITyADJ=14
 ICtDFT=  3500011 ScaDFX=  1.000000  1.000000  1.000000  1.000000
 FoFCou: FMM=F IPFlag=           0 FMFlag=      100000 FMFlg1=           0
         NFxFlg=           0 DoJE=T BraDBF=F KetDBF=T FulRan=T
         wScrn=  0.000000 ICntrl=     500 IOpCl=  0 I1Cent=   200000004 NGrid=           0
         NMat0=    1 NMatS0=      1 NMatT0=    0 NMatD0=    1 NMtDS0=    0 NMtDT0=    0
 Petite list used in FoFCou.
 Keep R1 ints in memory in canonical form, NReq=700735283.
 Requested convergence on RMS density matrix=1.00D-09 within 128 cycles.
 Requested convergence on MAX density matrix=1.00D-07.
 Requested convergence on             energy=1.00D-07.
 No special actions if energy rises.
 SCF Done:  E(RB3LYP) =  -805.102372612     A.U. after   15 cycles
            NFock= 15  Conv=0.94D-09     -V/T= 2.0033

 **********************************************************************

            Population analysis using the SCF density.

 **********************************************************************

 Orbital symmetries:
       Occupied  (A) (A) (A) (A) (A) (A) (A) (A) (A) (A) (A) (A)
                 (A) (A) (A) (A) (A) (A) (A) (A) (A) (A) (A) (A)
                 (A) (A) (A) (A) (A) (A) (A) (A) (A) (A) (A) (A)
                 (A) (A) (A)
       Virtual   (A) (A) (A) (A) (A) (A) (A) (A) (A) (A) (A) (A)
                 (A) (A) (A) (A) (A) (A) (A) (A) (A) (A) (A) (A)
                 (A) (A) (A) (A) (A) (A) (A) (A) (A) (A) (A) (A)
                 (A) (A) (A) (A) (A) (A) (A) (A) (A) (A) (A) (A)
                 (A) (A) (A) (A) (A) (A) (A) (A) (A) (A) (A) (A)
                 (A) (A) (A) (A) (A) (A) (A) (A) (A) (A) (A) (A)
                 (A) (A) (A) (A) (A) (A) (A) (A) (A) (A) (A) (A)
                 (A) (A) (A) (A) (A) (A) (A) (A) (A) (A) (A) (A)
                 (A) (A) (A) (A) (A) (A) (A) (A) (A) (A) (A) (A)
                 (A) (A) (A) (A) (A) (A) (A) (A) (A) (A) (A) (A)
                 (A) (A) (A) (A) (A) (A) (A) (A) (A) (A) (A) (A)
                 (A) (A) (A) (A) (A) (A) (A) (A) (A) (A) (A) (A)
                 (A) (A) (A) (A) (A) (A) (A) (A) (A) (A) (A) (A)
                 (A) (A) (A) (A) (A) (A) (A) (A) (A) (A) (A) (A)
                 (A) (A) (A) (A) (A) (A) (A) (A) (A) (A) (A) (A)
                 (A) (A) (A) (A) (A) (A) (A) (A) (A) (A) (A) (A)
                 (A) (A) (A) (A) (A) (A) (A) (A) (A) (A) (A) (A)
                 (A) (A) (A) (A) (A) (A) (A) (A) (A) (A) (A) (A)
                 (A) (A) (A) (A) (A) (A) (A) (A) (A) (A) (A) (A)
                 (A) (A) (A) (A) (A)
 The electronic state is 1-A.
 Alpha  occ. eigenvalues -- -101.37509 -14.44785 -14.43842 -10.31048 -10.28192
 Alpha  occ. eigenvalues --  -10.25541 -10.23734 -10.23000 -10.22133  -9.28892
 Alpha  occ. eigenvalues --   -7.04739  -7.04708  -7.04687  -1.11143  -0.99547
 Alpha  occ. eigenvalues --   -0.85018  -0.81884  -0.76651  -0.70915  -0.67356
 Alpha  occ. eigenvalues --   -0.64980  -0.63460  -0.59681  -0.54331  -0.52685
 Alpha  occ. eigenvalues --   -0.52051  -0.50272  -0.48791  -0.47711  -0.46160
 Alpha  occ. eigenvalues --   -0.44092  -0.43455  -0.42814  -0.41770  -0.34198
 Alpha  occ. eigenvalues --   -0.30105  -0.18094  -0.17811  -0.17732
 Alpha virt. eigenvalues --   -0.06778  -0.03892  -0.02009  -0.01584  -0.00536
 Alpha virt. eigenvalues --   -0.00318   0.00867   0.01663   0.03174   0.03544
 Alpha virt. eigenvalues --    0.04109   0.04603   0.05139   0.05584   0.06630
 Alpha virt. eigenvalues --    0.07642   0.08433   0.08578   0.09549   0.10312
 Alpha virt. eigenvalues --    0.10882   0.11241   0.12771   0.12922   0.13574
 Alpha virt. eigenvalues --    0.14243   0.14393   0.15088   0.15911   0.16112
 Alpha virt. eigenvalues --    0.16493   0.16605   0.17241   0.17610   0.18138
 Alpha virt. eigenvalues --    0.18744   0.19269   0.19402   0.20330   0.20680
 Alpha virt. eigenvalues --    0.21488   0.21934   0.22757   0.23555   0.23967
 Alpha virt. eigenvalues --    0.24631   0.25557   0.26526   0.27121   0.28235
 Alpha virt. eigenvalues --    0.29581   0.30799   0.34386   0.35293   0.36139
 Alpha virt. eigenvalues --    0.37826   0.38869   0.39839   0.40917   0.43372
 Alpha virt. eigenvalues --    0.45094   0.46239   0.47027   0.49777   0.51087
 Alpha virt. eigenvalues --    0.51720   0.52237   0.54427   0.54886   0.56425
 Alpha virt. eigenvalues --    0.57291   0.57998   0.59124   0.60338   0.60564
 Alpha virt. eigenvalues --    0.61417   0.61893   0.62244   0.63166   0.63924
 Alpha virt. eigenvalues --    0.65065   0.66657   0.66727   0.68728   0.69782
 Alpha virt. eigenvalues --    0.71926   0.73096   0.75340   0.77364   0.80129
 Alpha virt. eigenvalues --    0.81921   0.83682   0.85392   0.88762   0.90192
 Alpha virt. eigenvalues --    0.92313   0.93218   0.96117   0.97668   1.00418
 Alpha virt. eigenvalues --    1.01001   1.02718   1.02929   1.03993   1.04620
 Alpha virt. eigenvalues --    1.04893   1.07529   1.09443   1.10700   1.13316
 Alpha virt. eigenvalues --    1.15748   1.18568   1.22549   1.25611   1.27261
 Alpha virt. eigenvalues --    1.31849   1.35997   1.39068   1.39674   1.42225
 Alpha virt. eigenvalues --    1.42586   1.44545   1.47904   1.48178   1.50521
 Alpha virt. eigenvalues --    1.51974   1.53077   1.54746   1.56603   1.57306
 Alpha virt. eigenvalues --    1.58419   1.60112   1.60692   1.61611   1.62301
 Alpha virt. eigenvalues --    1.65531   1.67348   1.68280   1.71050   1.74085
 Alpha virt. eigenvalues --    1.74945   1.76266   1.77276   1.79635   1.83152
 Alpha virt. eigenvalues --    1.84888   1.88198   1.93282   1.96024   1.98521
 Alpha virt. eigenvalues --    2.00672   2.03617   2.05066   2.09233   2.11199
 Alpha virt. eigenvalues --    2.12978   2.16688   2.16811   2.20906   2.23662
 Alpha virt. eigenvalues --    2.26596   2.28634   2.32835   2.38197   2.39871
 Alpha virt. eigenvalues --    2.40534   2.40726   2.42343   2.43951   2.45128
 Alpha virt. eigenvalues --    2.48232   2.48823   2.49588   2.50150   2.50591
 Alpha virt. eigenvalues --    2.52436   2.54913   2.55745   2.56958   2.58574
 Alpha virt. eigenvalues --    2.59127   2.60017   2.61958   2.65741   2.68004
 Alpha virt. eigenvalues --    2.71912   2.72401   2.75365   2.77174   2.78431
 Alpha virt. eigenvalues --    2.79354   2.83586   2.86766   2.91977   2.95035
 Alpha virt. eigenvalues --    2.95908   2.99425   3.07383   3.17332   3.23739
 Alpha virt. eigenvalues --    3.36705   3.53018   3.55149   3.60695   3.65036
 Alpha virt. eigenvalues --    3.69508   3.72795   3.74236   3.75412   3.76330
 Alpha virt. eigenvalues --    3.82128   3.86407   3.89245   3.89800   4.06991
 Alpha virt. eigenvalues --    4.17100   4.68313   4.88851   4.92305   5.21907
 Alpha virt. eigenvalues --    9.86094  23.70583  23.79655  23.85763  23.90891
 Alpha virt. eigenvalues --   23.91739  24.14956  25.95592  26.03023  26.15463
 Alpha virt. eigenvalues --   35.41031  35.56570 215.84323
          Condensed to atoms (all electrons):
               1          2          3          4          5          6
     1  C    7.421480  -1.519178  -0.160976  -0.294624   0.434069  -0.140511
     2  C   -1.519178   7.082905  -0.029340   0.627415  -0.022565   0.423414
     3  C   -0.160976  -0.029340   5.312449   0.331314   0.011872   0.020295
     4  N   -0.294624   0.627415   0.331314   7.010891  -0.075339   0.023915
     5  H    0.434069  -0.022565   0.011872  -0.075339   0.479967  -0.002163
     6  H   -0.140511   0.423414   0.020295   0.023915  -0.002163   0.439613
     7  H   -0.026330   0.039568   0.439934  -0.050213  -0.000050   0.000252
     8  N    0.604541  -0.372404   0.457096  -0.558154   0.031750  -0.069858
     9  C   -0.105266   0.031873  -0.216466   0.255706  -0.024939   0.000510
    10  C   -0.031427   0.050248   0.000480  -0.080497   0.006042  -0.000844
    11  H   -0.009069   0.003969  -0.017445  -0.041919  -0.000938   0.000006
    12  H    0.001191  -0.001284   0.021280  -0.056799   0.000068  -0.000013
    13  H    0.001273   0.000446   0.003308   0.018597  -0.000117   0.000000
    14  H    0.013679  -0.011347  -0.005370  -0.023543   0.000534  -0.000004
    15  H   -0.006391  -0.001428  -0.000346   0.000062  -0.000032   0.000002
    16  C    0.132531  -0.348938  -0.092924  -0.136733   0.001068  -0.000942
    17  H    0.006518  -0.023322  -0.011197  -0.006542   0.000030  -0.003327
    18  H    0.009038  -0.030639  -0.016169  -0.007505   0.000012  -0.002712
    19  H   -0.015442   0.047876   0.042184   0.023273   0.000024   0.000482
    20  Cl  -0.040610   0.029364   0.023001   0.012029   0.000540   0.111181
               7          8          9         10         11         12
     1  C   -0.026330   0.604541  -0.105266  -0.031427  -0.009069   0.001191
     2  C    0.039568  -0.372404   0.031873   0.050248   0.003969  -0.001284
     3  C    0.439934   0.457096  -0.216466   0.000480  -0.017445   0.021280
     4  N   -0.050213  -0.558154   0.255706  -0.080497  -0.041919  -0.056799
     5  H   -0.000050   0.031750  -0.024939   0.006042  -0.000938   0.000068
     6  H    0.000252  -0.069858   0.000510  -0.000844   0.000006  -0.000013
     7  H    0.480390  -0.034211  -0.017992   0.004221   0.000026   0.001676
     8  N   -0.034211   6.938374  -0.135805   0.011043  -0.007701   0.012947
     9  C   -0.017992  -0.135805   5.639427  -0.014928   0.495544   0.399880
    10  C    0.004221   0.011043  -0.014928   5.306255  -0.070960  -0.030633
    11  H    0.000026  -0.007701   0.495544  -0.070960   0.503657  -0.032959
    12  H    0.001676   0.012947   0.399880  -0.030633  -0.032959   0.530388
    13  H   -0.000028  -0.000270  -0.071733   0.429724  -0.003313  -0.003383
    14  H   -0.000004   0.003186  -0.000083   0.399003  -0.007919   0.006608
    15  H    0.000092  -0.001771  -0.005333   0.395368   0.006258  -0.008066
    16  C    0.006264   0.352527  -0.057779   0.003644  -0.001337   0.002295
    17  H    0.000157  -0.011110  -0.000795   0.000081   0.000000   0.000002
    18  H    0.000136  -0.007553  -0.001818  -0.000057  -0.000004   0.000006
    19  H   -0.000619  -0.084742   0.008008   0.000105   0.000001   0.000015
    20  Cl   0.000271  -0.040483   0.003369  -0.000275   0.000007   0.000004
              13         14         15         16         17         18
     1  C    0.001273   0.013679  -0.006391   0.132531   0.006518   0.009038
     2  C    0.000446  -0.011347  -0.001428  -0.348938  -0.023322  -0.030639
     3  C    0.003308  -0.005370  -0.000346  -0.092924  -0.011197  -0.016169
     4  N    0.018597  -0.023543   0.000062  -0.136733  -0.006542  -0.007505
     5  H   -0.000117   0.000534  -0.000032   0.001068   0.000030   0.000012
     6  H    0.000000  -0.000004   0.000002  -0.000942  -0.003327  -0.002712
     7  H   -0.000028  -0.000004   0.000092   0.006264   0.000157   0.000136
     8  N   -0.000270   0.003186  -0.001771   0.352527  -0.011110  -0.007553
     9  C   -0.071733  -0.000083  -0.005333  -0.057779  -0.000795  -0.001818
    10  C    0.429724   0.399003   0.395368   0.003644   0.000081  -0.000057
    11  H   -0.003313  -0.007919   0.006258  -0.001337   0.000000  -0.000004
    12  H   -0.003383   0.006608  -0.008066   0.002295   0.000002   0.000006
    13  H    0.508993  -0.022060  -0.024250   0.000081   0.000000   0.000000
    14  H   -0.022060   0.518037  -0.027491   0.000030   0.000001   0.000000
    15  H   -0.024250  -0.027491   0.520643  -0.000565  -0.000001   0.000001
    16  C    0.000081   0.000030  -0.000565   5.189024   0.427826   0.440365
    17  H    0.000000   0.000001  -0.000001   0.427826   0.433265  -0.021873
    18  H    0.000000   0.000000   0.000001   0.440365  -0.021873   0.436903
    19  H    0.000000   0.000001  -0.000004   0.307804  -0.024222  -0.025019
    20  Cl   0.000000   0.000004  -0.000001  -0.030128  -0.000998  -0.007223
              19         20
     1  C   -0.015442  -0.040610
     2  C    0.047876   0.029364
     3  C    0.042184   0.023001
     4  N    0.023273   0.012029
     5  H    0.000024   0.000540
     6  H    0.000482   0.111181
     7  H   -0.000619   0.000271
     8  N   -0.084742  -0.040483
     9  C    0.008008   0.003369
    10  C    0.000105  -0.000275
    11  H    0.000001   0.000007
    12  H    0.000015   0.000004
    13  H    0.000000   0.000000
    14  H    0.000001   0.000004
    15  H   -0.000004  -0.000001
    16  C    0.307804  -0.030128
    17  H   -0.024222  -0.000998
    18  H   -0.025019  -0.007223
    19  H    0.594698   0.006368
    20  Cl   0.006368  17.678394
 Mulliken charges:
               1
     1  C   -0.274497
     2  C    0.023366
     3  C   -0.112980
     4  N    0.028665
     5  H    0.160168
     6  H    0.200704
     7  H    0.156461
     8  N   -0.087402
     9  C   -0.181380
    10  C   -0.376592
    11  H    0.184097
    12  H    0.156777
    13  H    0.162732
    14  H    0.156736
    15  H    0.153253
    16  C   -0.194116
    17  H    0.235506
    18  H    0.234110
    19  H    0.119208
    20  Cl  -0.744815
 Sum of Mulliken charges =   0.00000
 Mulliken charges with hydrogens summed into heavy atoms:
               1
     1  C   -0.114330
     2  C    0.224070
     3  C    0.043481
     4  N    0.028665
     8  N   -0.087402
     9  C    0.159494
    10  C    0.096129
    16  C    0.394707
    20  Cl  -0.744815
 Electronic spatial extent (au):  <R**2>=           2243.1110
 Charge=              0.0000 electrons
 Dipole moment (field-independent basis, Debye):
    X=            -16.2057    Y=              4.5603    Z=             -0.7970  Tot=             16.8540
 Quadrupole moment (field-independent basis, Debye-Ang):
   XX=            -95.1062   YY=            -56.3457   ZZ=            -65.0845
   XY=             13.0707   XZ=             -0.4849   YZ=              1.6123
 Traceless Quadrupole moment (field-independent basis, Debye-Ang):
   XX=            -22.9274   YY=             15.8331   ZZ=              7.0943
   XY=             13.0707   XZ=             -0.4849   YZ=              1.6123
 Octapole moment (field-independent basis, Debye-Ang**2):
  XXX=           -249.3159  YYY=             16.4938  ZZZ=              0.2338  XYY=            -19.3148
  XXY=             42.6109  XXZ=             -8.6145  XZZ=            -10.0996  YZZ=              2.9259
  YYZ=             -1.8786  XYZ=              1.3244
 Hexadecapole moment (field-independent basis, Debye-Ang**3):
 XXXX=          -3043.6382 YYYY=           -397.8790 ZZZZ=           -154.1402 XXXY=            171.5815
 XXXZ=            -17.0249 YYYX=             29.4425 YYYZ=              6.5746 ZZZX=              0.3554
 ZZZY=              2.3538 XXYY=           -505.9165 XXZZ=           -450.7116 YYZZ=           -101.2659
 XXYZ=              5.4669 YYXZ=              1.6978 ZZXY=             11.2274
 N-N= 5.044703436538D+02 E-N=-2.903089177898D+03  KE= 8.024320706590D+02
 Calling FoFJK, ICntrl=      2127 FMM=F ISym2X=0 I1Cent= 0 IOpClX= 0 NMat=1 NMatS=1 NMatT=0.
 ***** Axes restored to original set *****
 -------------------------------------------------------------------
 Center     Atomic                   Forces (Hartrees/Bohr)
 Number     Number              X              Y              Z
 -------------------------------------------------------------------
      1        6           0.000011005   -0.000056775   -0.000069960
      2        6           0.000009681    0.000130426    0.000003469
      3        6           0.000004930    0.000026572   -0.000040118
      4        7           0.000017780    0.000016447    0.000098705
      5        1          -0.000001820   -0.000004375   -0.000004430
      6        1          -0.000035679   -0.000140643    0.000019313
      7        1           0.000003694    0.000007481   -0.000001523
      8        7          -0.000065571   -0.000023903   -0.000000559
      9        6          -0.000009951    0.000010923   -0.000009671
     10        6           0.000012811   -0.000001430    0.000006756
     11        1           0.000009515   -0.000004304    0.000000912
     12        1           0.000009622   -0.000002387    0.000001873
     13        1           0.000000041    0.000000564   -0.000002039
     14        1          -0.000001240   -0.000000556   -0.000002634
     15        1          -0.000001352    0.000000479   -0.000004207
     16        6           0.000034924   -0.000056435    0.000015295
     17        1          -0.000019984    0.000114240   -0.000056111
     18        1          -0.000007308   -0.000005556   -0.000005175
     19        1          -0.000006336    0.000002021    0.000005682
     20       17           0.000035237   -0.000012789    0.000044421
 -------------------------------------------------------------------
 Cartesian Forces:  Max     0.000140643 RMS     0.000038732

 GradGradGradGradGradGradGradGradGradGradGradGradGradGradGradGradGradGrad
 Berny optimization.
 FormGI is forming the generalized inverse of G from B-inverse, IUseBI=4.
 GSVD:  received Info=                   1 from GESDD.
 Internal  Forces:  Max     0.000085872 RMS     0.000018538
 Search for a local minimum.
 Step number   1 out of a maximum of  120
 All quantities printed in internal units (Hartrees-Bohrs-Radians)
 Mixed Optimization -- En-DIIS/RFO-DIIS
 Second derivative matrix not updated -- first step.
 ITU=  0
     Eigenvalues ---    0.00363   0.00432   0.00782   0.01420   0.01492
     Eigenvalues ---    0.01649   0.01780   0.01842   0.02241   0.02361
     Eigenvalues ---    0.02522   0.03580   0.04233   0.04372   0.05305
     Eigenvalues ---    0.05515   0.05558   0.05718   0.05907   0.07587
     Eigenvalues ---    0.08907   0.09518   0.10109   0.12808   0.15999
     Eigenvalues ---    0.16000   0.16000   0.16000   0.16000   0.18872
     Eigenvalues ---    0.18994   0.21949   0.22847   0.23640   0.24935
     Eigenvalues ---    0.29864   0.31418   0.31766   0.33064   0.34452
     Eigenvalues ---    0.34583   0.34593   0.34635   0.34646   0.34710
     Eigenvalues ---    0.34788   0.35887   0.36459   0.36499   0.41113
     Eigenvalues ---    0.45285   0.48705   0.55247   0.56554
 RFO step:  Lambda=-5.22185156D-07 EMin= 3.63347793D-03
 Linear search not attempted -- first point.
 Iteration  1 RMS(Cart)=  0.00059672 RMS(Int)=  0.00000031
 Iteration  2 RMS(Cart)=  0.00000027 RMS(Int)=  0.00000005
 Variable       Old X    -DE/DX   Delta X   Delta X   Delta X     New X
                                 (Linear)    (Quad)   (Total)
    R1        2.57648   0.00002   0.00000   0.00003   0.00003   2.57651
    R2        2.62077  -0.00004   0.00000  -0.00009  -0.00009   2.62069
    R3        2.03308   0.00000   0.00000  -0.00001  -0.00001   2.03307
    R4        2.08668  -0.00006   0.00000  -0.00020  -0.00020   2.08648
    R5        2.61646   0.00001   0.00000  -0.00001  -0.00001   2.61645
    R6        2.53250   0.00001   0.00000   0.00001   0.00001   2.53251
    R7        2.03370  -0.00001   0.00000  -0.00002  -0.00002   2.03368
    R8        2.52161   0.00002   0.00000   0.00004   0.00004   2.52166
    R9        2.77558   0.00002   0.00000   0.00005   0.00005   2.77563
   R10        4.00589  -0.00003   0.00000  -0.00052  -0.00052   4.00537
   R11        2.78182   0.00000   0.00000  -0.00004  -0.00004   2.78178
   R12        2.88235   0.00001   0.00000   0.00002   0.00002   2.88237
   R13        2.06253   0.00000   0.00000   0.00000   0.00000   2.06253
   R14        2.06149   0.00000   0.00000   0.00000   0.00000   2.06150
   R15        2.06358   0.00000   0.00000   0.00000   0.00000   2.06358
   R16        2.06271   0.00000   0.00000   0.00000   0.00000   2.06271
   R17        2.06341   0.00000   0.00000  -0.00001  -0.00001   2.06340
   R18        2.05570  -0.00001   0.00000   0.00002   0.00002   2.05573
   R19        2.05534   0.00001   0.00000  -0.00002  -0.00002   2.05533
   R20        2.06020   0.00000   0.00000  -0.00001  -0.00001   2.06020
   R21        5.36813  -0.00006   0.00000  -0.00193  -0.00193   5.36619
   R22        5.52102   0.00002   0.00000  -0.00030  -0.00030   5.52072
    A1        1.88014   0.00002   0.00000   0.00006   0.00006   1.88019
    A2        2.27833  -0.00001   0.00000  -0.00001  -0.00001   2.27831
    A3        2.12470  -0.00001   0.00000  -0.00004  -0.00004   2.12467
    A4        2.36781   0.00004   0.00000   0.00031   0.00031   2.36813
    A5        1.85315   0.00000   0.00000   0.00001   0.00001   1.85316
    A6        2.06221  -0.00004   0.00000  -0.00032  -0.00032   2.06189
    A7        2.19006  -0.00001   0.00000  -0.00007  -0.00007   2.19000
    A8        1.89475   0.00002   0.00000   0.00008   0.00008   1.89483
    A9        2.19836   0.00000   0.00000  -0.00001  -0.00001   2.19835
   A10        1.88733  -0.00001   0.00000  -0.00006  -0.00006   1.88727
   A11        2.19936  -0.00001   0.00000  -0.00001  -0.00001   2.19936
   A12        2.19500   0.00002   0.00000   0.00010   0.00010   2.19510
   A13        2.60882   0.00009   0.00000   0.00038   0.00038   2.60920
   A14        1.90939  -0.00003   0.00000  -0.00008  -0.00008   1.90931
   A15        2.18323  -0.00001   0.00000  -0.00010  -0.00010   2.18313
   A16        2.19054   0.00004   0.00000   0.00018   0.00018   2.19073
   A17        1.95716   0.00000   0.00000   0.00003   0.00003   1.95720
   A18        1.87321   0.00001   0.00000   0.00007   0.00007   1.87329
   A19        1.86998   0.00000   0.00000   0.00007   0.00007   1.87005
   A20        1.94305  -0.00001   0.00000  -0.00007  -0.00007   1.94297
   A21        1.94113  -0.00001   0.00000  -0.00007  -0.00007   1.94106
   A22        1.87515   0.00000   0.00000  -0.00003  -0.00003   1.87512
   A23        1.91413   0.00000   0.00000   0.00000   0.00000   1.91413
   A24        1.94085   0.00000   0.00000  -0.00002  -0.00002   1.94084
   A25        1.93644   0.00000   0.00000  -0.00002  -0.00002   1.93641
   A26        1.88765   0.00000   0.00000   0.00001   0.00001   1.88766
   A27        1.89289   0.00000   0.00000   0.00002   0.00002   1.89291
   A28        1.89053   0.00000   0.00000   0.00001   0.00001   1.89055
   A29        1.90201  -0.00001   0.00000  -0.00018  -0.00018   1.90183
   A30        1.90365   0.00001   0.00000   0.00005   0.00005   1.90370
   A31        1.88655   0.00001   0.00000   0.00016   0.00016   1.88671
   A32        1.86520  -0.00002   0.00000  -0.00020  -0.00020   1.86499
   A33        1.95482   0.00002   0.00000   0.00005   0.00005   1.95486
   A34        1.95080   0.00000   0.00000   0.00011   0.00011   1.95091
   A35        1.80171   0.00004   0.00000   0.00060   0.00060   1.80231
   A36        1.72063  -0.00001   0.00000  -0.00027  -0.00027   1.72036
   A37        1.15426  -0.00003   0.00000   0.00000   0.00000   1.15427
   A38        1.13881  -0.00003   0.00000  -0.00016  -0.00016   1.13866
   A39        0.61553   0.00000   0.00000   0.00007   0.00007   0.61560
    D1       -3.14155  -0.00003   0.00000  -0.00109  -0.00109   3.14054
    D2        0.00421  -0.00002   0.00000  -0.00098  -0.00098   0.00322
    D3       -0.00679  -0.00001   0.00000  -0.00016  -0.00016  -0.00695
    D4        3.13897   0.00000   0.00000  -0.00005  -0.00005   3.13891
    D5       -0.00553   0.00003   0.00000   0.00117   0.00117  -0.00437
    D6       -3.09110   0.00002   0.00000   0.00054   0.00054  -3.09056
    D7       -3.14102   0.00000   0.00000   0.00034   0.00034  -3.14069
    D8        0.05660  -0.00001   0.00000  -0.00029  -0.00029   0.05631
    D9       -3.08635   0.00001   0.00000   0.00084   0.00084  -3.08551
   D10        0.05070   0.00000   0.00000   0.00072   0.00072   0.05142
   D11       -0.00144   0.00001   0.00000   0.00046   0.00046  -0.00097
   D12       -3.13619   0.00001   0.00000   0.00010   0.00010  -3.13608
   D13       -3.13973   0.00002   0.00000   0.00055   0.00055  -3.13918
   D14        0.00871   0.00001   0.00000   0.00019   0.00019   0.00890
   D15       -3.14100  -0.00001   0.00000  -0.00040  -0.00040  -3.14140
   D16       -0.05526   0.00000   0.00000   0.00022   0.00022  -0.05504
   D17        0.00464  -0.00002   0.00000  -0.00088  -0.00088   0.00376
   D18        3.09038  -0.00001   0.00000  -0.00026  -0.00026   3.09012
   D19       -0.00816  -0.00003   0.00000  -0.00134  -0.00134  -0.00951
   D20       -0.00201   0.00000   0.00000   0.00026   0.00026  -0.00175
   D21        3.13270   0.00001   0.00000   0.00062   0.00062   3.13332
   D22       -3.13954  -0.00001   0.00000  -0.00022  -0.00022  -3.13976
   D23       -0.00483   0.00000   0.00000   0.00014   0.00014  -0.00469
   D24        1.27269   0.00000   0.00000   0.00020   0.00020   1.27290
   D25       -0.86645   0.00001   0.00000   0.00022   0.00022  -0.86623
   D26       -2.87593   0.00000   0.00000   0.00019   0.00019  -2.87574
   D27       -1.80327  -0.00001   0.00000  -0.00052  -0.00052  -1.80379
   D28        2.34077   0.00000   0.00000  -0.00050  -0.00050   2.34027
   D29        0.33129  -0.00001   0.00000  -0.00054  -0.00054   0.33076
   D30        0.27940  -0.00001   0.00000  -0.00080  -0.00080   0.27860
   D31       -0.39809  -0.00001   0.00000  -0.00089  -0.00089  -0.39898
   D32       -0.99946   0.00002   0.00000   0.00016   0.00016  -0.99930
   D33        1.03089   0.00000   0.00000  -0.00015  -0.00015   1.03074
   D34       -3.12783   0.00001   0.00000   0.00011   0.00011  -3.12772
   D35        2.15007   0.00002   0.00000  -0.00026  -0.00026   2.14981
   D36       -2.10277  -0.00001   0.00000  -0.00057  -0.00057  -2.10334
   D37        0.02170   0.00000   0.00000  -0.00030  -0.00030   0.02139
   D38        3.14111   0.00000   0.00000   0.00005   0.00005   3.14116
   D39       -1.05506   0.00000   0.00000   0.00005   0.00005  -1.05501
   D40        1.05037   0.00000   0.00000   0.00004   0.00004   1.05041
   D41       -1.04304   0.00000   0.00000   0.00012   0.00012  -1.04292
   D42        1.04397   0.00000   0.00000   0.00012   0.00012   1.04410
   D43       -3.13378   0.00000   0.00000   0.00011   0.00011  -3.13367
   D44        1.04755   0.00000   0.00000  -0.00002  -0.00002   1.04753
   D45        3.13456   0.00000   0.00000  -0.00002  -0.00002   3.13454
   D46       -1.04320   0.00000   0.00000  -0.00003  -0.00003  -1.04322
   D47        1.35718  -0.00001   0.00000  -0.00005  -0.00005   1.35712
   D48       -0.69762   0.00000   0.00000   0.00009   0.00009  -0.69753
   D49       -2.83952   0.00000   0.00000   0.00006   0.00006  -2.83947
   D50       -1.39144   0.00000   0.00000  -0.00017  -0.00017  -1.39161
   D51        0.66228  -0.00002   0.00000  -0.00046  -0.00046   0.66182
   D52        2.80669  -0.00001   0.00000  -0.00047  -0.00047   2.80622
   D53       -0.99515   0.00001   0.00000   0.00025   0.00025  -0.99490
   D54        0.40756   0.00000   0.00000  -0.00004  -0.00004   0.40751
   D55        1.04988  -0.00002   0.00000   0.00031   0.00031   1.05019
   D56       -0.40094   0.00000   0.00000   0.00011   0.00011  -0.40083
         Item               Value     Threshold  Converged?
 Maximum Force            0.000086     0.000450     YES
 RMS     Force            0.000019     0.000300     YES
 Maximum Displacement     0.003861     0.001800     NO 
 RMS     Displacement     0.000597     0.001200     YES
 Predicted change in Energy=-2.610969D-07
 GradGradGradGradGradGradGradGradGradGradGradGradGradGradGradGradGradGrad

                          Input orientation:                          
 ---------------------------------------------------------------------
 Center     Atomic      Atomic             Coordinates (Angstroms)
 Number     Number       Type             X           Y           Z
 ---------------------------------------------------------------------
      1          6           0       -0.329656    1.665912   -0.111768
      2          6           0       -1.669014    1.560439    0.120479
      3          6           0       -0.846569   -0.480116   -0.170159
      4          7           0        0.169350    0.384986   -0.294675
      5          1           0        0.304282    2.533405   -0.166926
      6          1           0       -2.494079    2.266325    0.320648
      7          1           0       -0.770639   -1.549827   -0.260250
      8          7           0       -1.962472    0.207973    0.078688
      9          6           0        1.577969    0.029646   -0.511243
     10          6           0        2.407970    0.168567    0.760878
     11          1           0        1.957698    0.674969   -1.305356
     12          1           0        1.597345   -0.994929   -0.885310
     13          1           0        3.444891   -0.105039    0.554968
     14          1           0        2.394228    1.195337    1.131032
     15          1           0        2.027801   -0.485296    1.548400
     16          6           0       -3.301001   -0.373720    0.270829
     17          1           0       -3.686347   -0.061917    1.239173
     18          1           0       -3.975076    0.029424   -0.481527
     19          1           0       -3.213134   -1.457800    0.195960
     20         17           0       -4.536464    2.607177    0.773394
 ---------------------------------------------------------------------
                    Distance matrix (angstroms):
                    1          2          3          4          5
     1  C    0.000000
     2  C    1.363431   0.000000
     3  C    2.208177   2.219178   0.000000
     4  N    1.386807   2.221177   1.340148   0.000000
     5  H    1.075855   2.218820   3.225799   2.156440   0.000000
     6  H    2.287401   1.104117   3.240080   3.318420   2.853048
     7  H    3.249229   3.259722   1.076180   2.151340   4.223381
     8  N    2.197259   1.384568   1.334403   2.171497   3.256706
     9  C    2.544795   3.644901   2.500916   1.468801   2.830132
    10  C    3.240085   4.355366   3.446686   2.484441   3.298300
    11  H    2.763804   3.996262   3.238334   2.074549   2.735616
    12  H    3.375171   4.267391   2.597921   2.071759   3.825864
    13  H    4.222323   5.395796   4.368423   3.419237   4.164846
    14  H    3.030766   4.202911   3.873372   2.763945   2.800536
    15  H    3.597424   4.459869   3.348951   2.758289   3.876263
    16  C    3.624275   2.535144   2.496002   3.597050   4.651996
    17  H    4.009714   2.820132   3.197725   4.173585   4.963660
    18  H    4.012967   2.832727   3.184986   4.163845   4.968078
    19  H    4.262244   3.391131   2.586608   3.883012   5.332319
    20  Cl   4.400764   3.121574   4.902754   5.312588   4.931781
                    6          7          8          9         10
     6  H    0.000000
     7  H    4.227376   0.000000
     8  N    2.139618   2.150629   0.000000
     9  C    4.719783   2.841424   3.593681   0.000000
    10  C    5.350184   3.754881   4.423539   1.525284   0.000000
    11  H    4.999462   3.672300   4.183467   1.091445   2.174514
    12  H    5.369345   2.511168   3.879248   1.090896   2.172733
    13  H    6.399190   4.530196   5.437314   2.154145   1.092000
    14  H    5.069446   4.414519   4.589461   2.173058   1.091539
    15  H    5.433800   3.497957   4.308474   2.170171   1.091905
    16  C    2.761059   2.840423   1.472055   4.957690   5.755569
    17  H    2.772346   3.600486   2.095545   5.548456   6.117400
    18  H    2.800101   3.579303   2.096734   5.553125   6.504322
    19  H    3.794957   2.486439   2.086314   5.066291   5.878861
    20  Cl   2.119551   5.703555   3.586674   6.758717   7.360172
                   11         12         13         14         15
    11  H    0.000000
    12  H    1.759219   0.000000
    13  H    2.506184   2.505938   0.000000
    14  H    2.529294   3.081870   1.768253   0.000000
    15  H    3.081404   2.523482   1.771905   1.770026   0.000000
    16  C    5.589099   5.071130   6.757217   5.969717   5.480946
    17  H    6.234811   5.770732   7.164115   6.210135   5.738149
    18  H    6.024386   5.680160   7.493217   6.672911   6.357678
    19  H    5.791387   4.952182   6.803539   6.273437   5.499296
    20  Cl   7.087226   7.304114   8.432428   7.082069   7.297506
                   16         17         18         19         20
    16  C    0.000000
    17  H    1.087843   0.000000
    18  H    1.087631   1.747145   0.000000
    19  H    1.090209   1.805745   1.803158   0.000000
    20  Cl   3.265683   2.839668   2.921437   4.313777   0.000000
 Stoichiometry    C6H11ClN2
 Framework group  C1[X(C6H11ClN2)]
 Deg. of freedom    54
 Full point group                 C1      NOp   1
 Largest Abelian subgroup         C1      NOp   1
 Largest concise Abelian subgroup C1      NOp   1
                         Standard orientation:                         
 ---------------------------------------------------------------------
 Center     Atomic      Atomic             Coordinates (Angstroms)
 Number     Number       Type             X           Y           Z
 ---------------------------------------------------------------------
      1          6           0       -0.742854   -1.046150   -0.399117
      2          6           0        0.516027   -0.556976   -0.212383
      3          6           0       -0.913514    1.138088   -0.123391
      4          7           0       -1.623904    0.023430   -0.344478
      5          1           0       -1.084010   -2.052195   -0.569262
      6          1           0        1.532172   -0.986684   -0.169062
      7          1           0       -1.320441    2.130093   -0.031195
      8          7           0        0.377387    0.810068   -0.042097
      9          6           0       -3.087587   -0.057798   -0.436191
     10          6           0       -3.711858   -0.633442    0.830857
     11          1           0       -3.325277   -0.668897   -1.308724
     12          1           0       -3.453900    0.950585   -0.633754
     13          1           0       -4.797365   -0.675272    0.719545
     14          1           0       -3.350583   -1.645104    1.024452
     15          1           0       -3.476979   -0.013249    1.698295
     16          6           0        1.486357    1.751297    0.184215
     17          1           0        2.037910    1.441628    1.069256
     18          1           0        2.177283    1.694618   -0.653848
     19          1           0        1.065166    2.750812    0.294323
     20         17           0        3.614248   -0.725349    0.129533
 ---------------------------------------------------------------------
 Rotational constants (GHZ):      3.3111609      0.5434857      0.4889715
 Standard basis: 6-311+G(d,p) (5D, 7F)
 There are   281 symmetry adapted cartesian basis functions of A   symmetry.
 There are   272 symmetry adapted basis functions of A   symmetry.
   272 basis functions,   429 primitive gaussians,   281 cartesian basis functions
    39 alpha electrons       39 beta electrons
       nuclear repulsion energy       504.5097806092 Hartrees.
 NAtoms=   20 NActive=   20 NUniq=   20 SFac= 1.00D+00 NAtFMM=   60 NAOKFM=F Big=F
 Integral buffers will be    131072 words long.
 Raffenetti 2 integral format.
 Two-electron integral symmetry is turned on.
 Nuclear repulsion after empirical dispersion term =      504.4780536251 Hartrees.
 One-electron integrals computed using PRISM.
 NBasis=   272 RedAO= T EigKep=  7.36D-06  NBF=   272
 NBsUse=   272 1.00D-06 EigRej= -1.00D+00 NBFU=   272
 Initial guess from the checkpoint file:  "CJS1_emim-cl_BM_6-311+g-d-p-_gd3bj_opt-modredundant_unfrz.chk"
 B after Tr=     0.000000    0.000000    0.000000
         Rot=    1.000000   -0.000166   -0.000013    0.000019 Ang=  -0.02 deg.
 Keep R1 ints in memory in canonical form, NReq=700735283.
 Requested convergence on RMS density matrix=1.00D-09 within 128 cycles.
 Requested convergence on MAX density matrix=1.00D-07.
 Requested convergence on             energy=1.00D-07.
 No special actions if energy rises.
 SCF Done:  E(RB3LYP) =  -805.102372945     A.U. after   10 cycles
            NFock= 10  Conv=0.59D-09     -V/T= 2.0033
 Calling FoFJK, ICntrl=      2127 FMM=F ISym2X=0 I1Cent= 0 IOpClX= 0 NMat=1 NMatS=1 NMatT=0.
 ***** Axes restored to original set *****
 -------------------------------------------------------------------
 Center     Atomic                   Forces (Hartrees/Bohr)
 Number     Number              X              Y              Z
 -------------------------------------------------------------------
      1        6           0.000016098   -0.000017485    0.000060749
      2        6           0.000036863    0.000077048   -0.000074895
      3        6           0.000003229   -0.000016253    0.000031450
      4        7          -0.000017243    0.000007732   -0.000021631
      5        1           0.000000302    0.000001484    0.000006408
      6        1          -0.000062442   -0.000062597    0.000006028
      7        1           0.000002037   -0.000001931    0.000001295
      8        7           0.000010104   -0.000030192   -0.000004914
      9        6          -0.000005485    0.000003899   -0.000023532
     10        6          -0.000004464    0.000002356    0.000007602
     11        1           0.000000332   -0.000000155   -0.000001390
     12        1          -0.000001142   -0.000001401    0.000002263
     13        1          -0.000001895   -0.000000311   -0.000003850
     14        1           0.000000068   -0.000000324   -0.000000032
     15        1           0.000000499    0.000000540   -0.000000208
     16        6           0.000026064   -0.000047843    0.000041076
     17        1          -0.000023642    0.000099970   -0.000053566
     18        1          -0.000002554   -0.000014552   -0.000021974
     19        1           0.000002472    0.000004136   -0.000001277
     20       17           0.000020800   -0.000004119    0.000050399
 -------------------------------------------------------------------
 Cartesian Forces:  Max     0.000099970 RMS     0.000029068

 GradGradGradGradGradGradGradGradGradGradGradGradGradGradGradGradGradGrad
 Berny optimization.
 Using GEDIIS/GDIIS optimizer.
 FormGI is forming the generalized inverse of G from B-inverse, IUseBI=4.
 Internal  Forces:  Max     0.000053733 RMS     0.000013059
 Search for a local minimum.
 Step number   2 out of a maximum of  120
 All quantities printed in internal units (Hartrees-Bohrs-Radians)
 Mixed Optimization -- En-DIIS/RFO-DIIS
 Swapping is turned off.
 Update second derivatives using D2CorX and points    1    2
 DE= -3.32D-07 DEPred=-2.61D-07 R= 1.27D+00
 Trust test= 1.27D+00 RLast= 4.24D-03 DXMaxT set to 3.00D-01
 ITU=  0  0
     Eigenvalues ---    0.00314   0.00432   0.00774   0.01186   0.01463
     Eigenvalues ---    0.01496   0.01704   0.01938   0.02285   0.02522
     Eigenvalues ---    0.02805   0.03585   0.04228   0.04351   0.05364
     Eigenvalues ---    0.05471   0.05560   0.05718   0.06033   0.07510
     Eigenvalues ---    0.08548   0.09541   0.09966   0.12808   0.15977
     Eigenvalues ---    0.16000   0.16000   0.16000   0.16023   0.17018
     Eigenvalues ---    0.19069   0.21996   0.22795   0.24565   0.24973
     Eigenvalues ---    0.29864   0.31519   0.32056   0.33171   0.34470
     Eigenvalues ---    0.34583   0.34593   0.34635   0.34647   0.34710
     Eigenvalues ---    0.34788   0.36100   0.36478   0.36516   0.40986
     Eigenvalues ---    0.45362   0.48927   0.55329   0.56726
 En-DIIS/RFO-DIIS IScMMF=        0 using points:     2    1
 RFO step:  Lambda=-9.64413798D-08.
 DidBck=F Rises=F RFO-DIIS coefs:    1.38462   -0.38462
 Iteration  1 RMS(Cart)=  0.00086296 RMS(Int)=  0.00000139
 Iteration  2 RMS(Cart)=  0.00000099 RMS(Int)=  0.00000038
 Variable       Old X    -DE/DX   Delta X   Delta X   Delta X     New X
                                 (Linear)    (Quad)   (Total)
    R1        2.57651  -0.00001   0.00001   0.00000   0.00001   2.57652
    R2        2.62069   0.00000  -0.00003  -0.00008  -0.00011   2.62058
    R3        2.03307   0.00000   0.00000  -0.00001  -0.00001   2.03306
    R4        2.08648   0.00000  -0.00008  -0.00013  -0.00021   2.08627
    R5        2.61645   0.00002   0.00000   0.00003   0.00003   2.61648
    R6        2.53251   0.00000   0.00001   0.00002   0.00002   2.53254
    R7        2.03368   0.00000  -0.00001  -0.00001  -0.00002   2.03367
    R8        2.52166  -0.00001   0.00002   0.00002   0.00004   2.52169
    R9        2.77563  -0.00001   0.00002   0.00000   0.00002   2.77565
   R10        4.00537  -0.00002  -0.00020  -0.00083  -0.00103   4.00434
   R11        2.78178   0.00000  -0.00001  -0.00007  -0.00008   2.78170
   R12        2.88237   0.00000   0.00001   0.00002   0.00003   2.88240
   R13        2.06253   0.00000   0.00000   0.00000   0.00000   2.06254
   R14        2.06150   0.00000   0.00000   0.00000   0.00001   2.06150
   R15        2.06358   0.00000   0.00000   0.00000   0.00000   2.06358
   R16        2.06271   0.00000   0.00000   0.00000   0.00000   2.06271
   R17        2.06340   0.00000   0.00000  -0.00001  -0.00001   2.06339
   R18        2.05573  -0.00001   0.00001   0.00005   0.00006   2.05578
   R19        2.05533   0.00001  -0.00001  -0.00001  -0.00002   2.05531
   R20        2.06020   0.00000   0.00000  -0.00002  -0.00002   2.06017
   R21        5.36619  -0.00005  -0.00074  -0.00363  -0.00437   5.36182
   R22        5.52072   0.00003  -0.00012   0.00001  -0.00010   5.52061
    A1        1.88019   0.00000   0.00002   0.00002   0.00004   1.88023
    A2        2.27831   0.00000  -0.00001  -0.00002  -0.00002   2.27829
    A3        2.12467   0.00000  -0.00001   0.00000  -0.00002   2.12465
    A4        2.36813   0.00003   0.00012   0.00055   0.00067   2.36880
    A5        1.85316   0.00000   0.00000  -0.00002  -0.00002   1.85315
    A6        2.06189  -0.00003  -0.00012  -0.00054  -0.00066   2.06123
    A7        2.19000   0.00001  -0.00003  -0.00002  -0.00005   2.18995
    A8        1.89483  -0.00001   0.00003  -0.00003   0.00000   1.89483
    A9        2.19835   0.00001   0.00000   0.00006   0.00005   2.19840
   A10        1.88727   0.00001  -0.00002   0.00003   0.00001   1.88728
   A11        2.19936  -0.00001   0.00000  -0.00007  -0.00008   2.19928
   A12        2.19510   0.00000   0.00004   0.00005   0.00009   2.19519
   A13        2.60920   0.00005   0.00015   0.00066   0.00080   2.61000
   A14        1.90931   0.00001  -0.00003   0.00000  -0.00003   1.90928
   A15        2.18313  -0.00002  -0.00004  -0.00027  -0.00031   2.18282
   A16        2.19073   0.00001   0.00007   0.00027   0.00034   2.19106
   A17        1.95720  -0.00001   0.00001  -0.00006  -0.00004   1.95716
   A18        1.87329   0.00000   0.00003   0.00009   0.00012   1.87341
   A19        1.87005   0.00000   0.00003   0.00006   0.00009   1.87014
   A20        1.94297   0.00000  -0.00003  -0.00004  -0.00007   1.94291
   A21        1.94106   0.00000  -0.00003  -0.00005  -0.00008   1.94098
   A22        1.87512   0.00000  -0.00001   0.00000  -0.00001   1.87511
   A23        1.91413  -0.00001   0.00000  -0.00005  -0.00005   1.91408
   A24        1.94084   0.00000  -0.00001   0.00000  -0.00001   1.94083
   A25        1.93641   0.00000  -0.00001   0.00000  -0.00001   1.93640
   A26        1.88766   0.00000   0.00000   0.00002   0.00002   1.88768
   A27        1.89291   0.00000   0.00001   0.00003   0.00004   1.89294
   A28        1.89055   0.00000   0.00001   0.00001   0.00002   1.89057
   A29        1.90183   0.00000  -0.00007  -0.00024  -0.00031   1.90153
   A30        1.90370   0.00001   0.00002   0.00005   0.00007   1.90376
   A31        1.88671  -0.00001   0.00006   0.00018   0.00025   1.88696
   A32        1.86499  -0.00002  -0.00008  -0.00037  -0.00045   1.86454
   A33        1.95486   0.00002   0.00002   0.00016   0.00018   1.95504
   A34        1.95091   0.00000   0.00004   0.00020   0.00025   1.95116
   A35        1.80231   0.00004   0.00023   0.00129   0.00152   1.80383
   A36        1.72036  -0.00001  -0.00010  -0.00064  -0.00075   1.71962
   A37        1.15427  -0.00002   0.00000   0.00010   0.00010   1.15437
   A38        1.13866  -0.00002  -0.00006  -0.00049  -0.00055   1.13811
   A39        0.61560   0.00000   0.00003   0.00010   0.00013   0.61573
    D1        3.14054  -0.00001  -0.00042  -0.00104  -0.00146   3.13908
    D2        0.00322   0.00002  -0.00038   0.00060   0.00022   0.00344
    D3       -0.00695  -0.00002  -0.00006  -0.00104  -0.00110  -0.00806
    D4        3.13891   0.00001  -0.00002   0.00060   0.00058   3.13950
    D5       -0.00437  -0.00002   0.00045  -0.00056  -0.00011  -0.00448
    D6       -3.09056  -0.00002   0.00021  -0.00061  -0.00040  -3.09096
    D7       -3.14069  -0.00001   0.00013  -0.00056  -0.00043  -3.14112
    D8        0.05631  -0.00001  -0.00011  -0.00062  -0.00073   0.05558
    D9       -3.08551   0.00003   0.00032   0.00408   0.00440  -3.08111
   D10        0.05142   0.00000   0.00028   0.00229   0.00257   0.05399
   D11       -0.00097  -0.00001   0.00018  -0.00043  -0.00025  -0.00123
   D12       -3.13608  -0.00001   0.00004  -0.00084  -0.00080  -3.13688
   D13       -3.13918   0.00001   0.00021   0.00086   0.00107  -3.13810
   D14        0.00890   0.00001   0.00007   0.00046   0.00053   0.00943
   D15       -3.14140   0.00001  -0.00015   0.00030   0.00015  -3.14125
   D16       -0.05504   0.00000   0.00008   0.00035   0.00043  -0.05460
   D17        0.00376   0.00002  -0.00034   0.00029  -0.00005   0.00371
   D18        3.09012   0.00001  -0.00010   0.00033   0.00024   3.09036
   D19       -0.00951   0.00001  -0.00052  -0.00075  -0.00126  -0.01077
   D20       -0.00175  -0.00001   0.00010   0.00009   0.00019  -0.00157
   D21        3.13332  -0.00001   0.00024   0.00049   0.00073   3.13405
   D22       -3.13976   0.00000  -0.00008   0.00007  -0.00001  -3.13977
   D23       -0.00469   0.00000   0.00005   0.00048   0.00053  -0.00415
   D24        1.27290   0.00000   0.00008  -0.00028  -0.00020   1.27270
   D25       -0.86623   0.00000   0.00009  -0.00026  -0.00018  -0.86641
   D26       -2.87574  -0.00001   0.00007  -0.00034  -0.00027  -2.87601
   D27       -1.80379   0.00000  -0.00020  -0.00034  -0.00054  -1.80433
   D28        2.34027   0.00000  -0.00019  -0.00032  -0.00052   2.33975
   D29        0.33076   0.00000  -0.00021  -0.00040  -0.00061   0.33015
   D30        0.27860  -0.00001  -0.00031  -0.00254  -0.00284   0.27576
   D31       -0.39898  -0.00001  -0.00034  -0.00269  -0.00304  -0.40202
   D32       -0.99930   0.00002   0.00006   0.00005   0.00011  -0.99919
   D33        1.03074   0.00000  -0.00006  -0.00050  -0.00056   1.03018
   D34       -3.12772   0.00000   0.00004  -0.00011  -0.00007  -3.12779
   D35        2.14981   0.00002  -0.00010  -0.00042  -0.00052   2.14929
   D36       -2.10334   0.00000  -0.00022  -0.00097  -0.00119  -2.10453
   D37        0.02139   0.00000  -0.00012  -0.00058  -0.00070   0.02069
   D38        3.14116   0.00000   0.00002   0.00005   0.00007   3.14123
   D39       -1.05501   0.00000   0.00002   0.00004   0.00006  -1.05495
   D40        1.05041   0.00000   0.00002   0.00005   0.00007   1.05048
   D41       -1.04292   0.00000   0.00005   0.00010   0.00015  -1.04277
   D42        1.04410   0.00000   0.00005   0.00009   0.00014   1.04423
   D43       -3.13367   0.00000   0.00004   0.00011   0.00015  -3.13352
   D44        1.04753   0.00000  -0.00001   0.00005   0.00004   1.04757
   D45        3.13454   0.00000  -0.00001   0.00003   0.00003   3.13457
   D46       -1.04322   0.00000  -0.00001   0.00005   0.00004  -1.04318
   D47        1.35712   0.00000  -0.00002  -0.00016  -0.00018   1.35694
   D48       -0.69753   0.00000   0.00003   0.00012   0.00015  -0.69738
   D49       -2.83947   0.00000   0.00002   0.00001   0.00004  -2.83943
   D50       -1.39161  -0.00001  -0.00006  -0.00049  -0.00055  -1.39216
   D51        0.66182  -0.00002  -0.00018  -0.00095  -0.00113   0.66069
   D52        2.80622  -0.00001  -0.00018  -0.00088  -0.00106   2.80516
   D53       -0.99490   0.00001   0.00010   0.00094   0.00104  -0.99387
   D54        0.40751   0.00001  -0.00002  -0.00008  -0.00009   0.40742
   D55        1.05019  -0.00001   0.00012   0.00105   0.00117   1.05136
   D56       -0.40083   0.00000   0.00004   0.00023   0.00027  -0.40056
         Item               Value     Threshold  Converged?
 Maximum Force            0.000054     0.000450     YES
 RMS     Force            0.000013     0.000300     YES
 Maximum Displacement     0.006381     0.001800     NO 
 RMS     Displacement     0.000863     0.001200     YES
 Predicted change in Energy=-3.443855D-07
 GradGradGradGradGradGradGradGradGradGradGradGradGradGradGradGradGradGrad

                          Input orientation:                          
 ---------------------------------------------------------------------
 Center     Atomic      Atomic             Coordinates (Angstroms)
 Number     Number       Type             X           Y           Z
 ---------------------------------------------------------------------
      1          6           0       -0.329632    1.665615   -0.112320
      2          6           0       -1.669128    1.560270    0.119229
      3          6           0       -0.846587   -0.480372   -0.170590
      4          7           0        0.169407    0.384703   -0.294803
      5          1           0        0.304429    2.533044   -0.166952
      6          1           0       -2.494442    2.265521    0.320002
      7          1           0       -0.770558   -1.550094   -0.260362
      8          7           0       -1.962592    0.207780    0.077730
      9          6           0        1.578108    0.029438   -0.511042
     10          6           0        2.407891    0.169051    0.761162
     11          1           0        1.957981    0.674414   -1.305371
     12          1           0        1.597755   -0.995324   -0.884592
     13          1           0        3.444880   -0.104453    0.555472
     14          1           0        2.393900    1.195976    1.130870
     15          1           0        2.027714   -0.484555    1.548885
     16          6           0       -3.301206   -0.373456    0.270327
     17          1           0       -3.685994   -0.061054    1.238734
     18          1           0       -3.975534    0.030113   -0.481560
     19          1           0       -3.213957   -1.457586    0.195647
     20         17           0       -4.535348    2.606484    0.776770
 ---------------------------------------------------------------------
                    Distance matrix (angstroms):
                    1          2          3          4          5
     1  C    0.000000
     2  C    1.363437   0.000000
     3  C    2.208144   2.219187   0.000000
     4  N    1.386750   2.221169   1.340160   0.000000
     5  H    1.075849   2.218810   3.225761   2.156373   0.000000
     6  H    2.287617   1.104007   3.239758   3.318366   2.853484
     7  H    3.249172   3.259737   1.076171   2.151317   4.223310
     8  N    2.197262   1.384584   1.334423   2.171521   3.256702
     9  C    2.544706   3.644891   2.500992   1.468813   2.829965
    10  C    3.239862   4.355416   3.446961   2.484427   3.297637
    11  H    2.763879   3.996267   3.238343   2.074652   2.735825
    12  H    3.375178   4.267463   2.598034   2.071836   3.825844
    13  H    4.222088   5.395803   4.368658   3.419205   4.164219
    14  H    3.030463   4.202894   3.873590   2.763887   2.799639
    15  H    3.597210   4.460030   3.349362   2.758279   3.875528
    16  C    3.624153   2.534917   2.496196   3.597129   4.651834
    17  H    4.008977   2.819527   3.197539   4.173075   4.962739
    18  H    4.012954   2.832285   3.185530   4.164270   4.968071
    19  H    4.262459   3.391134   2.587182   3.883519   5.332508
    20  Cl   4.400427   3.121240   4.902360   5.312184   4.931475
                    6          7          8          9         10
     6  H    0.000000
     7  H    4.226999   0.000000
     8  N    2.139125   2.150668   0.000000
     9  C    4.719784   2.841478   3.593747   0.000000
    10  C    5.350016   3.755198   4.423765   1.525298   0.000000
    11  H    4.999753   3.672249   4.183493   1.091447   2.174481
    12  H    5.369379   2.511243   3.879381   1.090900   2.172693
    13  H    6.399044   4.530495   5.437507   2.154117   1.091998
    14  H    5.069252   4.414773   4.589625   2.173063   1.091537
    15  H    5.433504   3.498439   4.308848   2.170170   1.091900
    16  C    2.759988   2.840826   1.472011   4.957879   5.755782
    17  H    2.770706   3.600597   2.095308   5.548034   6.116899
    18  H    2.798782   3.580203   2.096737   5.553720   6.504750
    19  H    3.794033   2.487307   2.086447   5.067004   5.879704
    20  Cl   2.119007   5.703195   3.586295   6.758252   7.358660
                   11         12         13         14         15
    11  H    0.000000
    12  H    1.759216   0.000000
    13  H    2.506041   2.505855   0.000000
    14  H    2.529293   3.081838   1.768263   0.000000
    15  H    3.081372   2.523403   1.771922   1.770032   0.000000
    16  C    5.589268   5.071527   6.757466   5.969747   5.481282
    17  H    6.234408   5.770562   7.163665   6.209418   5.737771
    18  H    6.024980   5.681153   7.493736   6.672994   6.358190
    19  H    5.792013   4.953097   6.804450   6.274080   5.500287
    20  Cl   7.087421   7.303978   8.431025   7.080211   7.295510
                   16         17         18         19         20
    16  C    0.000000
    17  H    1.087874   0.000000
    18  H    1.087622   1.746871   0.000000
    19  H    1.090196   1.805866   1.803291   0.000000
    20  Cl   3.264909   2.837353   2.921383   4.312823   0.000000
 Stoichiometry    C6H11ClN2
 Framework group  C1[X(C6H11ClN2)]
 Deg. of freedom    54
 Full point group                 C1      NOp   1
 Largest Abelian subgroup         C1      NOp   1
 Largest concise Abelian subgroup C1      NOp   1
                         Standard orientation:                         
 ---------------------------------------------------------------------
 Center     Atomic      Atomic             Coordinates (Angstroms)
 Number     Number       Type             X           Y           Z
 ---------------------------------------------------------------------
      1          6           0       -0.743000   -1.045428   -0.400844
      2          6           0        0.516075   -0.556448   -0.214857
      3          6           0       -0.913426    1.138497   -0.122764
      4          7           0       -1.623986    0.024033   -0.344360
      5          1           0       -1.084338   -2.051350   -0.571316
      6          1           0        1.532325   -0.985636   -0.171693
      7          1           0       -1.320358    2.130352   -0.029091
      8          7           0        0.377566    0.810412   -0.042862
      9          6           0       -3.087732   -0.057210   -0.435236
     10          6           0       -3.711071   -0.634691    0.831451
     11          1           0       -3.326061   -0.667122   -1.308428
     12          1           0       -3.454367    0.951394   -0.631091
     13          1           0       -4.796637   -0.676533    0.720749
[...]
    19  H    4.236840   3.304461   2.730095   3.961280   5.285950
    20  Cl   4.405203   3.150536   4.941426   5.327592   4.917145
                    6          7          8          9         10
     6  H    0.000000
     7  H    4.228768   0.000000
     8  N    2.143107   2.151434   0.000000
     9  C    4.710715   2.841259   3.593614   0.000000
    10  C    5.322560   3.746735   4.416290   1.525326   0.000000
    11  H    4.997824   3.676447   4.186684   1.091408   2.174701
    12  H    5.366401   2.513622   3.881203   1.090883   2.172977
    13  H    6.374015   4.523441   5.431435   2.153991   1.091992
    14  H    5.034670   4.405907   4.580504   2.173110   1.091499
    15  H    5.399499   3.484412   4.297203   2.170136   1.091873
    16  C    2.762641   2.853223   1.474425   4.964397   5.755128
    17  H    2.377626   3.850469   2.078787   5.654629   6.329678
    18  H    3.334916   3.127664   2.103097   5.347607   6.349137
    19  H    3.631494   2.746282   2.098537   5.176933   5.809827
    20  Cl   2.153128   5.749441   3.640035   6.758740   7.255609
                   11         12         13         14         15
    11  H    0.000000
    12  H    1.759403   0.000000
    13  H    2.506503   2.505987   0.000000
    14  H    2.529368   3.082039   1.768443   0.000000
    15  H    3.081468   2.523694   1.771947   1.769838   0.000000
    16  C    5.597321   5.082205   6.758612   5.965166   5.477553
    17  H    6.232906   5.927837   7.383354   6.368076   6.064215
    18  H    5.866476   5.340007   7.293579   6.635962   6.167797
    19  H    5.964831   5.164166   6.777612   6.126949   5.341991
    20  Cl   7.131070   7.334946   8.336991   6.940772   7.148274
                   16         17         18         19         20
    16  C    0.000000
    17  H    1.099259   0.000000
    18  H    1.090168   1.791009   0.000000
    19  H    1.089427   1.807340   1.791824   0.000000
    20  Cl   3.344859   2.330445   3.870579   4.069255   0.000000
 Stoichiometry    C6H11ClN2
 Framework group  C1[X(C6H11ClN2)]
 Deg. of freedom    54
 Full point group                 C1      NOp   1
 Largest Abelian subgroup         C1      NOp   1
 Largest concise Abelian subgroup C1      NOp   1
                         Standard orientation:                         
 ---------------------------------------------------------------------
 Center     Atomic      Atomic             Coordinates (Angstroms)
 Number     Number       Type             X           Y           Z
 ---------------------------------------------------------------------
      1          6           0       -0.737283   -0.974476   -0.569400
      2          6           0        0.519482   -0.472775   -0.400943
      3          6           0       -0.936769    1.162525   -0.046978
      4          7           0       -1.634598    0.059213   -0.348665
      5          1           0       -1.067377   -1.967227   -0.819874
      6          1           0        1.534771   -0.899796   -0.413556
      7          1           0       -1.358584    2.127281    0.176175
      8          7           0        0.363990    0.862900   -0.074316
      9          6           0       -3.099114   -0.054419   -0.356271
     10          6           0       -3.625792   -0.770636    0.883190
     11          1           0       -3.379036   -0.582825   -1.269288
     12          1           0       -3.499909    0.957635   -0.427939
     13          1           0       -4.715050   -0.832332    0.836743
     14          1           0       -3.229871   -1.785546    0.950827
     15          1           0       -3.348362   -0.232952    1.792099
     16          6           0        1.475603    1.798246    0.177422
     17          1           0        2.370783    1.187085    0.360468
     18          1           0        1.628209    2.421119   -0.704171
     19          1           0        1.231553    2.412867    1.043178
     20         17           0        3.597081   -0.787699    0.194946
 ---------------------------------------------------------------------
 Rotational constants (GHZ):      3.0628913      0.5479039      0.4913380

 **********************************************************************

            Population analysis using the SCF density.

 **********************************************************************

 Orbital symmetries:
       Occupied  (A) (A) (A) (A) (A) (A) (A) (A) (A) (A) (A) (A)
                 (A) (A) (A) (A) (A) (A) (A) (A) (A) (A) (A) (A)
                 (A) (A) (A) (A) (A) (A) (A) (A) (A) (A) (A) (A)
                 (A) (A) (A)
       Virtual   (A) (A) (A) (A) (A) (A) (A) (A) (A) (A) (A) (A)
                 (A) (A) (A) (A) (A) (A) (A) (A) (A) (A) (A) (A)
                 (A) (A) (A) (A) (A) (A) (A) (A) (A) (A) (A) (A)
                 (A) (A) (A) (A) (A) (A) (A) (A) (A) (A) (A) (A)
                 (A) (A) (A) (A) (A) (A) (A) (A) (A) (A) (A) (A)
                 (A) (A) (A) (A) (A) (A) (A) (A) (A) (A) (A) (A)
                 (A) (A) (A) (A) (A) (A) (A) (A) (A) (A) (A) (A)
                 (A) (A) (A) (A) (A) (A) (A) (A) (A) (A) (A) (A)
                 (A) (A) (A) (A) (A) (A) (A) (A) (A) (A) (A) (A)
                 (A) (A) (A) (A) (A) (A) (A) (A) (A) (A) (A) (A)
                 (A) (A) (A) (A) (A) (A) (A) (A) (A) (A) (A) (A)
                 (A) (A) (A) (A) (A) (A) (A) (A) (A) (A) (A) (A)
                 (A) (A) (A) (A) (A) (A) (A) (A) (A) (A) (A) (A)
                 (A) (A) (A) (A) (A) (A) (A) (A) (A) (A) (A) (A)
                 (A) (A) (A) (A) (A) (A) (A) (A) (A) (A) (A) (A)
                 (A) (A) (A) (A) (A) (A) (A) (A) (A) (A) (A) (A)
                 (A) (A) (A) (A) (A) (A) (A) (A) (A) (A) (A) (A)
                 (A) (A) (A) (A) (A) (A) (A) (A) (A) (A) (A) (A)
                 (A) (A) (A) (A) (A) (A) (A) (A) (A) (A) (A) (A)
                 (A) (A) (A) (A) (A)
 The electronic state is 1-A.
 Alpha  occ. eigenvalues -- -101.37874 -14.44886 -14.43734 -10.30965 -10.28212
 Alpha  occ. eigenvalues --  -10.25541 -10.23913 -10.22391 -10.22112  -9.29253
 Alpha  occ. eigenvalues --   -7.05093  -7.05079  -7.05047  -1.11132  -0.99493
 Alpha  occ. eigenvalues --   -0.84965  -0.81900  -0.76472  -0.70847  -0.67361
 Alpha  occ. eigenvalues --   -0.64989  -0.63793  -0.59661  -0.54368  -0.52617
 Alpha  occ. eigenvalues --   -0.52049  -0.50289  -0.48608  -0.47818  -0.46255
 Alpha  occ. eigenvalues --   -0.44065  -0.43194  -0.42157  -0.41642  -0.34498
 Alpha  occ. eigenvalues --   -0.30086  -0.18389  -0.18240  -0.17980
 Alpha virt. eigenvalues --   -0.07064  -0.03869  -0.01954  -0.01472  -0.00547
 Alpha virt. eigenvalues --   -0.00303   0.00862   0.01776   0.03280   0.03634
 Alpha virt. eigenvalues --    0.04082   0.04616   0.05231   0.05663   0.06638
 Alpha virt. eigenvalues --    0.07914   0.08437   0.08541   0.09692   0.10344
 Alpha virt. eigenvalues --    0.11131   0.11278   0.12389   0.12956   0.13813
 Alpha virt. eigenvalues --    0.13858   0.14124   0.15434   0.15500   0.16264
 Alpha virt. eigenvalues --    0.16615   0.16786   0.17509   0.17673   0.18257
 Alpha virt. eigenvalues --    0.18608   0.19122   0.19537   0.20136   0.21589
 Alpha virt. eigenvalues --    0.21623   0.21992   0.22728   0.23303   0.23750
 Alpha virt. eigenvalues --    0.24511   0.25994   0.26381   0.27045   0.27954
 Alpha virt. eigenvalues --    0.28940   0.30786   0.33864   0.35363   0.35683
 Alpha virt. eigenvalues --    0.37333   0.38155   0.39963   0.41650   0.43396
 Alpha virt. eigenvalues --    0.45470   0.45935   0.46804   0.49000   0.50908
 Alpha virt. eigenvalues --    0.51715   0.51766   0.54669   0.55638   0.56111
 Alpha virt. eigenvalues --    0.57075   0.57373   0.59012   0.59574   0.60259
 Alpha virt. eigenvalues --    0.61163   0.61512   0.62728   0.63438   0.64426
 Alpha virt. eigenvalues --    0.65168   0.66326   0.66569   0.68773   0.69455
 Alpha virt. eigenvalues --    0.72238   0.73895   0.74742   0.77384   0.79562
 Alpha virt. eigenvalues --    0.81653   0.83720   0.84543   0.88751   0.90688
 Alpha virt. eigenvalues --    0.92375   0.92535   0.94531   0.96977   0.99774
 Alpha virt. eigenvalues --    1.00816   1.02635   1.02799   1.03362   1.04542
 Alpha virt. eigenvalues --    1.05580   1.07901   1.09721   1.12843   1.13687
 Alpha virt. eigenvalues --    1.16011   1.19652   1.22908   1.25718   1.26585
 Alpha virt. eigenvalues --    1.30198   1.34393   1.38757   1.39742   1.42438
 Alpha virt. eigenvalues --    1.44475   1.45073   1.48010   1.48854   1.50438
 Alpha virt. eigenvalues --    1.51532   1.52625   1.53697   1.55191   1.57499
 Alpha virt. eigenvalues --    1.58074   1.59833   1.61282   1.62108   1.62458
 Alpha virt. eigenvalues --    1.65393   1.66471   1.68777   1.71004   1.72743
 Alpha virt. eigenvalues --    1.74547   1.76372   1.78393   1.80401   1.81911
 Alpha virt. eigenvalues --    1.83862   1.87008   1.92522   1.96017   1.98523
 Alpha virt. eigenvalues --    2.00821   2.03591   2.05787   2.08997   2.10078
 Alpha virt. eigenvalues --    2.14503   2.15388   2.18221   2.20940   2.23820
 Alpha virt. eigenvalues --    2.26024   2.29985   2.33092   2.38396   2.39519
 Alpha virt. eigenvalues --    2.39729   2.41268   2.42073   2.43536   2.44380
 Alpha virt. eigenvalues --    2.45988   2.47549   2.49258   2.50047   2.51632
 Alpha virt. eigenvalues --    2.53069   2.55645   2.55878   2.57279   2.57809
 Alpha virt. eigenvalues --    2.59503   2.60406   2.61946   2.64469   2.66818
 Alpha virt. eigenvalues --    2.71011   2.71996   2.74560   2.76896   2.78323
 Alpha virt. eigenvalues --    2.79394   2.82682   2.88077   2.91593   2.94743
 Alpha virt. eigenvalues --    2.94940   2.97403   3.08362   3.16825   3.23557
 Alpha virt. eigenvalues --    3.36421   3.52778   3.54347   3.59120   3.64257
 Alpha virt. eigenvalues --    3.69625   3.73873   3.75021   3.76101   3.78331
 Alpha virt. eigenvalues --    3.82269   3.84246   3.86776   3.90314   4.06695
 Alpha virt. eigenvalues --    4.17069   4.68155   4.88578   4.91903   5.22128
 Alpha virt. eigenvalues --    9.84286  23.70624  23.79526  23.85648  23.89971
 Alpha virt. eigenvalues --   23.91612  24.14495  25.95204  26.02334  26.11038
 Alpha virt. eigenvalues --   35.41298  35.56402 215.82207
          Condensed to atoms (all electrons):
               1          2          3          4          5          6
     1  C    8.562787  -2.707999  -0.219516  -0.101555   0.453746  -0.115359
     2  C   -2.707999   8.261403   0.045576   0.351979  -0.041950   0.400226
     3  C   -0.219516   0.045576   5.257938   0.449029   0.011193   0.021716
     4  N   -0.101555   0.351979   0.449029   6.780664  -0.075194   0.025439
     5  H    0.453746  -0.041950   0.011193  -0.075194   0.479839  -0.002589
     6  H   -0.115359   0.400226   0.021716   0.025439  -0.002589   0.443907
     7  H   -0.026805   0.041684   0.439674  -0.045258  -0.000027   0.000196
     8  N    0.392237  -0.073675   0.326888  -0.317892   0.031029  -0.067147
     9  C    0.185012  -0.285814  -0.110312   0.133981  -0.022645   0.003032
    10  C   -0.067548   0.097574   0.000146  -0.070323   0.006279  -0.001815
    11  H   -0.004037   0.000042  -0.014384  -0.043457  -0.001012   0.000008
    12  H    0.007934  -0.007728   0.019321  -0.058416   0.000066  -0.000011
    13  H   -0.000845   0.002401   0.003803   0.019383  -0.000117   0.000000
    14  H    0.014661  -0.012483  -0.006511  -0.023281   0.000445  -0.000004
    15  H   -0.001910  -0.006167  -0.001573  -0.000771  -0.000041   0.000006
    16  C   -0.125659  -0.052290  -0.180783  -0.039420   0.000533  -0.006739
    17  H    0.011945   0.007720   0.015410  -0.003889   0.000081  -0.008434
    18  H   -0.015660   0.000572  -0.022372  -0.004473   0.000023  -0.000887
    19  H    0.024368  -0.016624   0.037270   0.010144   0.000014   0.000526
    20  Cl  -0.081049   0.044977   0.021215  -0.002028   0.000311   0.108489
               7          8          9         10         11         12
     1  C   -0.026805   0.392237   0.185012  -0.067548  -0.004037   0.007934
     2  C    0.041684  -0.073675  -0.285814   0.097574   0.000042  -0.007728
     3  C    0.439674   0.326888  -0.110312   0.000146  -0.014384   0.019321
     4  N   -0.045258  -0.317892   0.133981  -0.070323  -0.043457  -0.058416
     5  H   -0.000027   0.031029  -0.022645   0.006279  -0.001012   0.000066
     6  H    0.000196  -0.067147   0.003032  -0.001815   0.000008  -0.000011
     7  H    0.478729  -0.042352  -0.012390   0.002643   0.000031   0.001718
     8  N   -0.042352   6.685326  -0.052264   0.015032  -0.006314   0.012809
     9  C   -0.012390  -0.052264   5.640748  -0.057534   0.489877   0.400521
    10  C    0.002643   0.015032  -0.057534   5.316951  -0.070168  -0.029356
    11  H    0.000031  -0.006314   0.489877  -0.070168   0.504513  -0.032804
    12  H    0.001718   0.012809   0.400521  -0.029356  -0.032804   0.531611
    13  H   -0.000032  -0.000328  -0.074122   0.430714  -0.003313  -0.003363
    14  H    0.000006   0.003532   0.000835   0.399528  -0.008013   0.006566
    15  H    0.000091  -0.002173  -0.001610   0.394565   0.006339  -0.007998
    16  C    0.006120   0.277316  -0.052987   0.009986  -0.000958   0.002487
    17  H    0.000169  -0.025513   0.001695  -0.000255  -0.000003  -0.000001
    18  H    0.000319  -0.018933  -0.002295   0.000144  -0.000005  -0.000004
    19  H   -0.000267  -0.055734   0.005974  -0.000679   0.000002   0.000019
    20  Cl   0.000341  -0.017644   0.000968  -0.000420  -0.000006  -0.000004
              13         14         15         16         17         18
     1  C   -0.000845   0.014661  -0.001910  -0.125659   0.011945  -0.015660
     2  C    0.002401  -0.012483  -0.006167  -0.052290   0.007720   0.000572
     3  C    0.003803  -0.006511  -0.001573  -0.180783   0.015410  -0.022372
     4  N    0.019383  -0.023281  -0.000771  -0.039420  -0.003889  -0.004473
     5  H   -0.000117   0.000445  -0.000041   0.000533   0.000081   0.000023
     6  H    0.000000  -0.000004   0.000006  -0.006739  -0.008434  -0.000887
     7  H   -0.000032   0.000006   0.000091   0.006120   0.000169   0.000319
     8  N   -0.000328   0.003532  -0.002173   0.277316  -0.025513  -0.018933
     9  C   -0.074122   0.000835  -0.001610  -0.052987   0.001695  -0.002295
    10  C    0.430714   0.399528   0.394565   0.009986  -0.000255   0.000144
    11  H   -0.003313  -0.008013   0.006339  -0.000958  -0.000003  -0.000005
    12  H   -0.003363   0.006566  -0.007998   0.002487  -0.000001  -0.000004
    13  H    0.509663  -0.021979  -0.024247   0.000080   0.000000   0.000000
    14  H   -0.021979   0.516419  -0.027331   0.000060   0.000001   0.000000
    15  H   -0.024247  -0.027331   0.519584  -0.000730   0.000000  -0.000001
    16  C    0.000080   0.000060  -0.000730   5.354785   0.314863   0.429271
    17  H    0.000000   0.000001   0.000000   0.314863   0.410379  -0.012223
    18  H    0.000000   0.000000  -0.000001   0.429271  -0.012223   0.501324
    19  H    0.000000   0.000002   0.000008   0.343261  -0.011631  -0.038845
    20  Cl   0.000000   0.000003  -0.000010  -0.091168   0.078969   0.002025
              19         20
     1  C    0.024368  -0.081049
     2  C   -0.016624   0.044977
     3  C    0.037270   0.021215
     4  N    0.010144  -0.002028
     5  H    0.000014   0.000311
     6  H    0.000526   0.108489
     7  H   -0.000267   0.000341
     8  N   -0.055734  -0.017644
     9  C    0.005974   0.000968
    10  C   -0.000679  -0.000420
    11  H    0.000002  -0.000006
    12  H    0.000019  -0.000004
    13  H    0.000000   0.000000
    14  H    0.000002   0.000003
    15  H    0.000008  -0.000010
    16  C    0.343261  -0.091168
    17  H   -0.011631   0.078969
    18  H   -0.038845   0.002025
    19  H    0.558579   0.000616
    20  Cl   0.000616  17.678201
 Mulliken charges:
               1
     1  C   -0.184751
     2  C   -0.049427
     3  C   -0.093727
     4  N    0.015337
     5  H    0.160017
     6  H    0.199440
     7  H    0.155412
     8  N   -0.064200
     9  C   -0.190669
    10  C   -0.375466
    11  H    0.183662
    12  H    0.156633
    13  H    0.162302
    14  H    0.157543
    15  H    0.153970
    16  C   -0.188027
    17  H    0.220718
    18  H    0.182020
    19  H    0.142998
    20  Cl  -0.743785
 Sum of Mulliken charges =   0.00000
 Mulliken charges with hydrogens summed into heavy atoms:
               1
     1  C   -0.024734
     2  C    0.150013
     3  C    0.061685
     4  N    0.015337
     8  N   -0.064200
     9  C    0.149626
    10  C    0.098349
    16  C    0.357710
    20  Cl  -0.743785
 Electronic spatial extent (au):  <R**2>=           2241.1674
 Charge=              0.0000 electrons
 Dipole moment (field-independent basis, Debye):
    X=            -16.1078    Y=              4.6564    Z=             -1.0225  Tot=             16.7985
 Quadrupole moment (field-independent basis, Debye-Ang):
   XX=            -93.8975   YY=            -56.8981   ZZ=            -64.9507
   XY=             13.3927   XZ=             -2.1411   YZ=              2.6212
 Traceless Quadrupole moment (field-independent basis, Debye-Ang):
   XX=            -21.9821   YY=             15.0173   ZZ=              6.9647
   XY=             13.3927   XZ=             -2.1411   YZ=              2.6212
 Octapole moment (field-independent basis, Debye-Ang**2):
  XXX=           -242.5193  YYY=             16.7675  ZZZ=              0.3479  XYY=            -19.8135
  XXY=             42.8926  XXZ=            -10.3932  XZZ=            -11.2818  YZZ=              3.2632
  YYZ=             -2.0413  XYZ=              1.4691
 Hexadecapole moment (field-independent basis, Debye-Ang**3):
 XXXX=          -2974.4809 YYYY=           -425.7748 ZZZZ=           -168.9216 XXXY=            173.1595
 XXXZ=            -31.2384 YYYX=             31.4986 YYYZ=             10.0211 ZZZX=             -2.6421
 ZZZY=              2.9750 XXYY=           -504.4988 XXZZ=           -450.1094 YYZZ=           -101.5188
 XXYZ=              9.1746 YYXZ=             -1.7868 ZZXY=             11.8964
 N-N= 5.036521590283D+02 E-N=-2.901426093635D+03  KE= 8.024325590977D+02
 1\1\GINC-CX1-9-16-3\FOpt\RB3LYP\6-311+G(d,p)\C6H11Cl1N2\CJS14\17-Apr-2
 015\0\\# opt=modredundant b3lyp/6-311+g(d,p) geom=checkpoint integral=
 grid=ultrafine scf=conver=9 empiricaldispersion=gd3bj\\Emim+ (optimise
 d with b3lyp+gd3bj / aug-cc-pvtz) and Cl- in the back-methyl position 
 created on; Thu Apr 16 19:11:53 BST 2015, from; CJS1_emim-cl_BM_init.c
 om created on; Fri Apr 17 20:54:16 BST 2015, from; CJS1_emim-cl_BM_6-3
 11+g-d-p-_gd3bj_opt-modredundant_difrz.com\\0,1\C,-0.3351627263,1.6713
 313318,-0.1042526839\C,-1.675800619,1.5543100498,0.116053494\C,-0.8463
 509881,-0.4741770236,-0.2266098897\N,0.1672020976,0.3971764423,-0.3200
 50745\H,0.2985763306,2.5404306427,-0.1214625796\H,-2.4836965916,2.2544
 661103,0.3813894237\H,-0.7665475883,-1.5408568871,-0.3462107176\N,-1.9
 663895834,0.2038108128,0.0348146447\C,1.5797522898,0.0512908356,-0.527
 0364851\C,2.3892234159,0.1475060881,0.7621955188\H,1.9701182811,0.7245
 224464,-1.2922454377\H,1.6067880522,-0.959685034,-0.9359654449\H,3.429
 711795,-0.1175741982,0.5632908436\H,2.3675025134,1.1608058967,1.167316
 1717\H,1.997798184,-0.5335549915,1.520567835\C,-3.3138436676,-0.373700
 4054,0.1922240417\H,-3.9350419168,0.3941863992,0.6747513978\H,-3.71994
 15292,-0.6124254994,-0.7909145841\H,-3.2446280705,-1.2708956828,0.8063
 100287\Cl,-4.4221855587,2.5985485564,1.253071688\\Version=ES64L-G09Rev
 D.01\State=1-A\HF=-805.1035697\RMSD=5.164e-10\RMSF=2.367e-06\Dipole=5.
 2992264,-3.4711606,-1.8837307\Quadrupole=-6.6122199,3.8711897,2.741030
 2,15.0167455,6.5154792,-3.70089\PG=C01 [X(C6H11Cl1N2)]\\@


 MYSTERY IS THE WISDOM OF BLOCKHEADS... HORACE WALPOLE 
 Job cpu time:       0 days  5 hours 33 minutes 58.4 seconds.
 File lengths (MBytes):  RWF=     35 Int=      0 D2E=      0 Chk=      6 Scr=      1
 Normal termination of Gaussian 09 at Fri Apr 17 21:46:46 2015.
