 Entering Gaussian System, Link 0=g09
 Input=/work/cjs14/CJS1_emim-cl_FE_6-311+g-d-p-_gd3bj_opt-modredundant_unfrz.com
 Output=/work/cjs14/CJS1_emim-cl_FE_6-311+g-d-p-_gd3bj_opt-modredundant_unfrz.log
 Initial command:
 /apps/gaussian/g09_d01/g09/l1.exe /tmp/pbs.9403242.cx1b/Gau-28182.inp -scrdir=/tmp/pbs.9403242.cx1b/
 Entering Link 1 = /apps/gaussian/g09_d01/g09/l1.exe PID=     28183.
  
 Copyright (c) 1988,1990,1992,1993,1995,1998,2003,2009,2013,
            Gaussian, Inc.  All Rights Reserved.
  
 This is part of the Gaussian(R) 09 program.  It is based on
 the Gaussian(R) 03 system (copyright 2003, Gaussian, Inc.),
 the Gaussian(R) 98 system (copyright 1998, Gaussian, Inc.),
 the Gaussian(R) 94 system (copyright 1995, Gaussian, Inc.),
 the Gaussian 92(TM) system (copyright 1992, Gaussian, Inc.),
 the Gaussian 90(TM) system (copyright 1990, Gaussian, Inc.),
 the Gaussian 88(TM) system (copyright 1988, Gaussian, Inc.),
 the Gaussian 86(TM) system (copyright 1986, Carnegie Mellon
 University), and the Gaussian 82(TM) system (copyright 1983,
 Carnegie Mellon University). Gaussian is a federally registered
 trademark of Gaussian, Inc.
  
 This software contains proprietary and confidential information,
 including trade secrets, belonging to Gaussian, Inc.
  
 This software is provided under written license and may be
 used, copied, transmitted, or stored only in accord with that
 written license.
  
 The following legend is applicable only to US Government
 contracts under FAR:
  
                    RESTRICTED RIGHTS LEGEND
  
 Use, reproduction and disclosure by the US Government is
 subject to restrictions as set forth in subparagraphs (a)
 and (c) of the Commercial Computer Software - Restricted
 Rights clause in FAR 52.227-19.
  
 Gaussian, Inc.
 340 Quinnipiac St., Bldg. 40, Wallingford CT 06492
  
  
 ---------------------------------------------------------------
 Warning -- This program may not be used in any manner that
 competes with the business of Gaussian, Inc. or will provide
 assistance to any competitor of Gaussian, Inc.  The licensee
 of this program is prohibited from giving any competitor of
 Gaussian, Inc. access to this program.  By using this program,
 the user acknowledges that Gaussian, Inc. is engaged in the
 business of creating and licensing software in the field of
 computational chemistry and represents and warrants to the
 licensee that it is not a competitor of Gaussian, Inc. and that
 it will not use this program in any manner prohibited above.
 ---------------------------------------------------------------
  

 Cite this work as:
 Gaussian 09, Revision D.01,
 M. J. Frisch, G. W. Trucks, H. B. Schlegel, G. E. Scuseria, 
 M. A. Robb, J. R. Cheeseman, G. Scalmani, V. Barone, B. Mennucci, 
 G. A. Petersson, H. Nakatsuji, M. Caricato, X. Li, H. P. Hratchian, 
 A. F. Izmaylov, J. Bloino, G. Zheng, J. L. Sonnenberg, M. Hada, 
 M. Ehara, K. Toyota, R. Fukuda, J. Hasegawa, M. Ishida, T. Nakajima, 
 Y. Honda, O. Kitao, H. Nakai, T. Vreven, J. A. Montgomery, Jr., 
 J. E. Peralta, F. Ogliaro, M. Bearpark, J. J. Heyd, E. Brothers, 
 K. N. Kudin, V. N. Staroverov, T. Keith, R. Kobayashi, J. Normand, 
 K. Raghavachari, A. Rendell, J. C. Burant, S. S. Iyengar, J. Tomasi, 
 M. Cossi, N. Rega, J. M. Millam, M. Klene, J. E. Knox, J. B. Cross, 
 V. Bakken, C. Adamo, J. Jaramillo, R. Gomperts, R. E. Stratmann, 
 O. Yazyev, A. J. Austin, R. Cammi, C. Pomelli, J. W. Ochterski, 
 R. L. Martin, K. Morokuma, V. G. Zakrzewski, G. A. Voth, 
 P. Salvador, J. J. Dannenberg, S. Dapprich, A. D. Daniels, 
 O. Farkas, J. B. Foresman, J. V. Ortiz, J. Cioslowski, 
 and D. J. Fox, Gaussian, Inc., Wallingford CT, 2013.
 
 ******************************************
 Gaussian 09:  ES64L-G09RevD.01 24-Apr-2013
                19-Apr-2015 
 ******************************************
 %nprocshared=8
 Will use up to    8 processors via shared memory.
 %mem=15000MB
 %chk=CJS1_emim-cl_FE_6-311+g-d-p-_gd3bj_opt-modredundant_unfrz.chk
 ----------------------------------------------------------------------
 # opt=modredundant b3lyp/6-311+g(d,p) geom=checkpoint integral=grid=ul
 trafine scf=conver=9 empiricaldispersion=gd3bj
 ----------------------------------------------------------------------
 1/14=-1,18=120,19=15,26=4,29=2,38=1/1,3;
 2/9=110,12=2,40=1/2;
 3/5=4,6=6,7=111,11=2,14=-4,16=1,25=1,30=1,71=1,74=-5,75=-5,124=41/1,2,3;
 4//1;
 5/5=2,6=9,38=5/2;
 6/7=2,8=2,9=2,10=2,28=1/1;
 7//1,2,3,16;
 1/14=-1,18=20,19=15,26=4/3(2);
 2/9=110/2;
 99//99;
 2/9=110/2;
 3/5=4,6=6,7=111,11=2,14=-2,16=1,25=1,30=1,71=1,74=-5,75=-5,124=41/1,2,3;
 4/5=5,16=3,69=1/1;
 5/5=2,6=9,38=5/2;
 7//1,2,3,16;
 1/14=-1,18=20,19=15,26=4/3(-5);
 2/9=110/2;
 6/7=2,8=2,9=2,10=2,19=2,28=1/1;
 99/9=1/99;
 ----------------------------------------------------------------------
 Emim+ (optimised with b3lyp+gd3bj / aug-cc-pvtz) and Cl- in the front-
 ethyl position created on; Thu Apr 16 19:11:58 BST 2015, from; CJS1_em
 im-cl_FE_init.com created on; Sun Apr 19 10:11:25 BST 2015, from; CJS1
 _emim-cl_FE_6-311+g-d-p-_gd3bj_opt-modredundant_difrz_err.com
 ----------------------------------------------------------------------
 Structure from the checkpoint file:  "CJS1_emim-cl_FE_6-311+g-d-p-_gd3bj_opt-modredundant_unfrz.chk"
 Charge =  0 Multiplicity = 1
 Redundant internal coordinates found in file.
 C,0,-0.3611374617,1.8456157459,-0.1882484288
 C,0,-1.6900461387,1.6950459145,0.0626759621
 C,0,-0.7939170166,-0.3310628412,-0.1422385253
 N,0,0.1729025556,0.5757252727,-0.3158766495
 H,0,0.2392355227,2.7327483343,-0.2894696952
 H,0,-2.467014339,2.4233241417,0.2165834591
 H,0,-0.5926363049,-1.432984021,-0.1870378282
 N,0,-1.9362935498,0.3300211353,0.0879468549
 C,0,1.5938122167,0.2279108997,-0.5373341109
 C,0,2.3479852347,0.0999569106,0.7793040655
 H,0,2.0093961704,1.0051422789,-1.1810201577
 H,0,1.596240685,-0.7294239521,-1.0610590251
 H,0,3.3979793883,-0.1161841307,0.5715554852
 H,0,2.2938455493,1.0181795202,1.3707388898
 H,0,1.9435627193,-0.7353432239,1.3534153539
 C,0,-3.228444954,-0.3151569403,0.3156479577
 H,0,-3.6230653179,-0.0191166291,1.2879013451
 H,0,-3.9285623554,-0.0323784751,-0.4709821803
 H,0,-3.0775768026,-1.392640913,0.2975222513
 Cl,0,0.4966919585,-3.0891456474,-0.3595160635
 Recover connectivity data from disk.
 The following ModRedundant input section has been read:
 D      20       3       4       1 A                                           
 

 GradGradGradGradGradGradGradGradGradGradGradGradGradGradGradGradGradGrad
 Berny optimization.
 Initialization pass.
                           ----------------------------
                           !    Initial Parameters    !
                           ! (Angstroms and Degrees)  !
 --------------------------                            --------------------------
 ! Name  Definition              Value          Derivative Info.                !
 --------------------------------------------------------------------------------
 ! R1    R(1,2)                  1.3607         estimate D2E/DX2                !
 ! R2    R(1,4)                  1.3835         estimate D2E/DX2                !
 ! R3    R(1,5)                  1.076          estimate D2E/DX2                !
 ! R4    R(2,6)                  1.076          estimate D2E/DX2                !
 ! R5    R(2,8)                  1.3873         estimate D2E/DX2                !
 ! R6    R(3,4)                  1.3368         estimate D2E/DX2                !
 ! R7    R(3,7)                  1.121          estimate D2E/DX2                !
 ! R8    R(3,8)                  1.3398         estimate D2E/DX2                !
 ! R9    R(4,9)                  1.4795         estimate D2E/DX2                !
 ! R10   R(8,16)                 1.4621         estimate D2E/DX2                !
 ! R11   R(9,10)                 1.5227         estimate D2E/DX2                !
 ! R12   R(9,11)                 1.0914         estimate D2E/DX2                !
 ! R13   R(9,12)                 1.0912         estimate D2E/DX2                !
 ! R14   R(10,13)                1.092          estimate D2E/DX2                !
 ! R15   R(10,14)                1.0936         estimate D2E/DX2                !
 ! R16   R(10,15)                1.0913         estimate D2E/DX2                !
 ! R17   R(12,20)                2.6962         estimate D2E/DX2                !
 ! R18   R(16,17)                1.0902         estimate D2E/DX2                !
 ! R19   R(16,18)                1.0904         estimate D2E/DX2                !
 ! R20   R(16,19)                1.0881         estimate D2E/DX2                !
 ! A1    A(2,1,4)              107.0027         estimate D2E/DX2                !
 ! A2    A(2,1,5)              130.8069         estimate D2E/DX2                !
 ! A3    A(4,1,5)              122.1897         estimate D2E/DX2                !
 ! A4    A(1,2,6)              131.0473         estimate D2E/DX2                !
 ! A5    A(1,2,8)              106.5938         estimate D2E/DX2                !
 ! A6    A(6,2,8)              122.3577         estimate D2E/DX2                !
 ! A7    A(4,3,7)              122.1197         estimate D2E/DX2                !
 ! A8    A(4,3,8)              107.7143         estimate D2E/DX2                !
 ! A9    A(7,3,8)              130.1627         estimate D2E/DX2                !
 ! A10   A(1,4,3)              109.3571         estimate D2E/DX2                !
 ! A11   A(1,4,9)              126.8911         estimate D2E/DX2                !
 ! A12   A(3,4,9)              123.679          estimate D2E/DX2                !
 ! A13   A(2,8,3)              109.3311         estimate D2E/DX2                !
 ! A14   A(2,8,16)             126.4336         estimate D2E/DX2                !
 ! A15   A(3,8,16)             124.2334         estimate D2E/DX2                !
 ! A16   A(4,9,10)             111.4684         estimate D2E/DX2                !
 ! A17   A(4,9,11)             106.6523         estimate D2E/DX2                !
 ! A18   A(4,9,12)             106.273          estimate D2E/DX2                !
 ! A19   A(10,9,11)            112.4088         estimate D2E/DX2                !
 ! A20   A(10,9,12)            109.8868         estimate D2E/DX2                !
 ! A21   A(11,9,12)            109.9291         estimate D2E/DX2                !
 ! A22   A(9,10,13)            109.1702         estimate D2E/DX2                !
 ! A23   A(9,10,14)            111.8738         estimate D2E/DX2                !
 ! A24   A(9,10,15)            109.6127         estimate D2E/DX2                !
 ! A25   A(13,10,14)           108.4638         estimate D2E/DX2                !
 ! A26   A(13,10,15)           107.7543         estimate D2E/DX2                !
 ! A27   A(14,10,15)           109.8667         estimate D2E/DX2                !
 ! A28   A(9,12,20)            129.9433         estimate D2E/DX2                !
 ! A29   A(8,16,17)            109.8124         estimate D2E/DX2                !
 ! A30   A(8,16,18)            109.9172         estimate D2E/DX2                !
 ! A31   A(8,16,19)            108.1688         estimate D2E/DX2                !
 ! A32   A(17,16,18)           109.9089         estimate D2E/DX2                !
 ! A33   A(17,16,19)           109.5064         estimate D2E/DX2                !
 ! A34   A(18,16,19)           109.5            estimate D2E/DX2                !
 ! D1    D(4,1,2,6)           -179.3594         estimate D2E/DX2                !
 ! D2    D(4,1,2,8)              0.2413         estimate D2E/DX2                !
 ! D3    D(5,1,2,6)              0.3398         estimate D2E/DX2                !
 ! D4    D(5,1,2,8)            179.9405         estimate D2E/DX2                !
 ! D5    D(2,1,4,3)             -0.3184         estimate D2E/DX2                !
 ! D6    D(2,1,4,9)           -177.2846         estimate D2E/DX2                !
 ! D7    D(5,1,4,3)            179.9506         estimate D2E/DX2                !
 ! D8    D(5,1,4,9)              2.9844         estimate D2E/DX2                !
 ! D9    D(1,2,8,3)             -0.0861         estimate D2E/DX2                !
 ! D10   D(1,2,8,16)          -179.5998         estimate D2E/DX2                !
 ! D11   D(6,2,8,3)            179.5575         estimate D2E/DX2                !
 ! D12   D(6,2,8,16)             0.0437         estimate D2E/DX2                !
 ! D13   D(7,3,4,1)           -179.1434         estimate D2E/DX2                !
 ! D14   D(7,3,4,9)             -2.0591         estimate D2E/DX2                !
 ! D15   D(8,3,4,1)              0.2649         estimate D2E/DX2                !
 ! D16   D(8,3,4,9)            177.3492         estimate D2E/DX2                !
 ! D17   D(20,3,4,1)          -178.3488         estimate D2E/DX2                !
 ! D18   D(4,3,8,2)             -0.1108         estimate D2E/DX2                !
 ! D19   D(4,3,8,16)           179.416          estimate D2E/DX2                !
 ! D20   D(7,3,8,2)            179.2334         estimate D2E/DX2                !
 ! D21   D(7,3,8,16)            -1.2398         estimate D2E/DX2                !
 ! D22   D(1,4,9,10)            87.6008         estimate D2E/DX2                !
 ! D23   D(1,4,9,11)           -35.4371         estimate D2E/DX2                !
 ! D24   D(1,4,9,12)          -152.6913         estimate D2E/DX2                !
 ! D25   D(3,4,9,10)           -88.9591         estimate D2E/DX2                !
 ! D26   D(3,4,9,11)           148.003          estimate D2E/DX2                !
 ! D27   D(3,4,9,12)            30.7489         estimate D2E/DX2                !
 ! D28   D(2,8,16,17)          -59.1645         estimate D2E/DX2                !
 ! D29   D(2,8,16,18)           61.8673         estimate D2E/DX2                !
 ! D30   D(2,8,16,19)         -178.6221         estimate D2E/DX2                !
 ! D31   D(3,8,16,17)          121.3905         estimate D2E/DX2                !
 ! D32   D(3,8,16,18)         -117.5777         estimate D2E/DX2                !
 ! D33   D(3,8,16,19)            1.9329         estimate D2E/DX2                !
 ! D34   D(4,9,10,13)         -177.6981         estimate D2E/DX2                !
 ! D35   D(4,9,10,14)          -57.6397         estimate D2E/DX2                !
 ! D36   D(4,9,10,15)           64.488          estimate D2E/DX2                !
 ! D37   D(11,9,10,13)         -58.0122         estimate D2E/DX2                !
 ! D38   D(11,9,10,14)          62.0461         estimate D2E/DX2                !
 ! D39   D(11,9,10,15)        -175.8262         estimate D2E/DX2                !
 ! D40   D(12,9,10,13)          64.7559         estimate D2E/DX2                !
 ! D41   D(12,9,10,14)        -175.1857         estimate D2E/DX2                !
 ! D42   D(12,9,10,15)         -53.058          estimate D2E/DX2                !
 ! D43   D(4,9,12,20)          -56.6346         estimate D2E/DX2                !
 ! D44   D(10,9,12,20)          64.0981         estimate D2E/DX2                !
 ! D45   D(11,9,12,20)        -171.6825         estimate D2E/DX2                !
 --------------------------------------------------------------------------------
 Trust Radius=3.00D-01 FncErr=1.00D-07 GrdErr=1.00D-06
 Number of steps in this run=    109 maximum allowed number of steps=    120.
 GradGradGradGradGradGradGradGradGradGradGradGradGradGradGradGradGradGrad

                          Input orientation:                          
 ---------------------------------------------------------------------
 Center     Atomic      Atomic             Coordinates (Angstroms)
 Number     Number       Type             X           Y           Z
 ---------------------------------------------------------------------
      1          6           0       -0.361137    1.845616   -0.188248
      2          6           0       -1.690046    1.695046    0.062676
      3          6           0       -0.793917   -0.331063   -0.142239
      4          7           0        0.172903    0.575725   -0.315877
      5          1           0        0.239236    2.732748   -0.289470
      6          1           0       -2.467014    2.423324    0.216583
      7          1           0       -0.592636   -1.432984   -0.187038
      8          7           0       -1.936294    0.330021    0.087947
      9          6           0        1.593812    0.227911   -0.537334
     10          6           0        2.347985    0.099957    0.779304
     11          1           0        2.009396    1.005142   -1.181020
     12          1           0        1.596241   -0.729424   -1.061059
     13          1           0        3.397979   -0.116184    0.571555
     14          1           0        2.293846    1.018180    1.370739
     15          1           0        1.943563   -0.735343    1.353415
     16          6           0       -3.228445   -0.315157    0.315648
     17          1           0       -3.623065   -0.019117    1.287901
     18          1           0       -3.928562   -0.032378   -0.470982
     19          1           0       -3.077577   -1.392641    0.297522
     20         17           0        0.496692   -3.089146   -0.359516
 ---------------------------------------------------------------------
                    Distance matrix (angstroms):
                    1          2          3          4          5
     1  C    0.000000
     2  C    1.360747   0.000000
     3  C    2.219762   2.224894   0.000000
     4  N    1.383513   2.206073   1.336845   0.000000
     5  H    1.075964   2.218775   3.236668   2.158204   0.000000
     6  H    2.220890   1.075991   3.242631   3.265930   2.770491
     7  H    3.286763   3.324340   1.121049   2.153500   4.249215
     8  N    2.203277   1.387288   1.339792   2.161516   3.263199
     9  C    2.561378   3.646399   2.483909   1.479528   2.858413
    10  C    3.364941   4.400405   3.302509   2.481282   3.538459
    11  H    2.703964   3.963410   3.274611   2.074989   2.629250
    12  H    3.350217   4.235625   2.591482   2.069928   3.797822
    13  H    4.307774   5.424713   4.257660   3.415757   4.339982
    14  H    3.188107   4.247419   3.693756   2.745694   3.149200
    15  H    3.788102   4.558060   3.145508   2.764177   4.198983
    16  C    3.625507   2.543930   2.477264   3.572346   4.656254
    17  H    4.036882   2.859387   3.185387   4.163570   4.997822
    18  H    4.041450   2.877454   3.165957   4.149200   5.004939
    19  H    4.254565   3.393259   2.556451   3.849200   5.325846
    20  Cl   5.011694   5.277173   3.052851   3.679405   5.828005
                    6          7          8          9         10
     6  H    0.000000
     7  H    4.306659   0.000000
     8  N    2.163361   2.233656   0.000000
     9  C    4.677451   2.768002   3.586509   0.000000
    10  C    5.375771   3.454125   4.345797   1.522723   0.000000
    11  H    4.899264   3.701761   4.199349   1.091389   2.185606
    12  H    5.299267   2.459694   3.862828   1.091230   2.154049
    13  H    6.401036   4.270180   5.374704   2.145474   1.091954
    14  H    5.096302   4.094710   4.473611   2.180668   1.093553
    15  H    5.542811   3.048279   4.217783   2.150609   1.091278
    16  C    2.844094   2.906840   1.462107   4.927136   5.611049
    17  H    2.906836   3.654855   2.099282   5.532478   5.993855
    18  H    2.939276   3.629149   2.100683   5.528904   6.401233
    19  H    3.865350   2.532065   2.077020   5.014484   5.647715
    20  Cl   6.285123   1.989788   4.220230   3.498308   3.859349
                   11         12         13         14         15
    11  H    0.000000
    12  H    1.787123   0.000000
    13  H    2.501411   2.507540   0.000000
    14  H    2.567597   3.074803   1.773298   0.000000
    15  H    3.075221   2.439335   1.763517   1.788251   0.000000
    16  C    5.605193   5.034335   6.634348   5.778122   5.291803
    17  H    6.234525   5.767435   7.058161   6.007718   5.612898
    18  H    6.069593   5.599778   7.400819   6.573733   6.189058
    19  H    5.814873   4.912247   6.605851   5.984649   5.172890
    20  Cl   4.441434   2.696193   4.257096   4.805587   3.250839
                   16         17         18         19         20
    16  C    0.000000
    17  H    1.090248   0.000000
    18  H    1.090374   1.785266   0.000000
    19  H    1.088146   1.779038   1.779070   0.000000
    20  Cl   4.693347   5.395504   5.379510   4.010639   0.000000
 Stoichiometry    C6H11ClN2
 Framework group  C1[X(C6H11ClN2)]
 Deg. of freedom    54
 Full point group                 C1      NOp   1
 Largest Abelian subgroup         C1      NOp   1
 Largest concise Abelian subgroup C1      NOp   1
                         Standard orientation:                         
 ---------------------------------------------------------------------
 Center     Atomic      Atomic             Coordinates (Angstroms)
 Number     Number       Type             X           Y           Z
 ---------------------------------------------------------------------
      1          6           0       -1.497709    1.534273   -0.280919
      2          6           0       -2.411667    0.555498   -0.039441
      3          6           0       -0.395504   -0.383650   -0.096360
      4          7           0       -0.254863    0.927476   -0.316184
      5          1           0       -1.623633    2.592052   -0.432393
      6          1           0       -3.482753    0.596529    0.054622
      7          1           0        0.482265   -1.080272   -0.064889
      8          7           0       -1.701351   -0.630823    0.073082
      9          6           0        1.054113    1.593837   -0.493801
     10          6           0        1.633463    2.048415    0.839015
     11          1           0        0.891026    2.425218   -1.181797
     12          1           0        1.713479    0.855236   -0.952591
     13          1           0        2.576288    2.569731    0.661045
     14          1           0        0.957221    2.726316    1.367225
     15          1           0        1.846886    1.177954    1.461619
     16          6           0       -2.261439   -1.957733    0.324818
     17          1           0       -2.805663   -1.955973    1.269518
     18          1           0       -2.930762   -2.238854   -0.488750
     19          1           0       -1.439085   -2.668147    0.380558
     20         17           0        2.398864   -1.612953   -0.111313
 ---------------------------------------------------------------------
 Rotational constants (GHZ):      1.5041805      0.9626497      0.6225586
 Standard basis: 6-311+G(d,p) (5D, 7F)
 There are   281 symmetry adapted cartesian basis functions of A   symmetry.
 There are   272 symmetry adapted basis functions of A   symmetry.
   272 basis functions,   429 primitive gaussians,   281 cartesian basis functions
    39 alpha electrons       39 beta electrons
       nuclear repulsion energy       517.8429324403 Hartrees.
 NAtoms=   20 NActive=   20 NUniq=   20 SFac= 1.00D+00 NAtFMM=   60 NAOKFM=F Big=F
 Integral buffers will be    131072 words long.
 Raffenetti 2 integral format.
 Two-electron integral symmetry is turned on.
 Nuclear repulsion after empirical dispersion term =      517.8106518760 Hartrees.
 One-electron integrals computed using PRISM.
 NBasis=   272 RedAO= T EigKep=  1.88D-05  NBF=   272
 NBsUse=   272 1.00D-06 EigRej= -1.00D+00 NBFU=   272
 ExpMin= 4.38D-02 ExpMax= 1.06D+05 ExpMxC= 3.62D+03 IAcc=3 IRadAn=         5 AccDes= 0.00D+00
 Harris functional with IExCor=  402 and IRadAn=       5 diagonalized for initial guess.
 HarFok:  IExCor=  402 AccDes= 0.00D+00 IRadAn=         5 IDoV= 1 UseB2=F ITyADJ=14
 ICtDFT=  3500011 ScaDFX=  1.000000  1.000000  1.000000  1.000000
 FoFCou: FMM=F IPFlag=           0 FMFlag=      100000 FMFlg1=           0
         NFxFlg=           0 DoJE=T BraDBF=F KetDBF=T FulRan=T
         wScrn=  0.000000 ICntrl=     500 IOpCl=  0 I1Cent=   200000004 NGrid=           0
         NMat0=    1 NMatS0=      1 NMatT0=    0 NMatD0=    1 NMtDS0=    0 NMtDT0=    0
 Petite list used in FoFCou.
 Keep R1 ints in memory in canonical form, NReq=700735283.
 Requested convergence on RMS density matrix=1.00D-09 within 128 cycles.
 Requested convergence on MAX density matrix=1.00D-07.
 Requested convergence on             energy=1.00D-07.
 No special actions if energy rises.
 SCF Done:  E(RB3LYP) =  -805.117144738     A.U. after   15 cycles
            NFock= 15  Conv=0.51D-09     -V/T= 2.0033

 **********************************************************************

            Population analysis using the SCF density.

 **********************************************************************

 Orbital symmetries:
       Occupied  (A) (A) (A) (A) (A) (A) (A) (A) (A) (A) (A) (A)
                 (A) (A) (A) (A) (A) (A) (A) (A) (A) (A) (A) (A)
                 (A) (A) (A) (A) (A) (A) (A) (A) (A) (A) (A) (A)
                 (A) (A) (A)
       Virtual   (A) (A) (A) (A) (A) (A) (A) (A) (A) (A) (A) (A)
                 (A) (A) (A) (A) (A) (A) (A) (A) (A) (A) (A) (A)
                 (A) (A) (A) (A) (A) (A) (A) (A) (A) (A) (A) (A)
                 (A) (A) (A) (A) (A) (A) (A) (A) (A) (A) (A) (A)
                 (A) (A) (A) (A) (A) (A) (A) (A) (A) (A) (A) (A)
                 (A) (A) (A) (A) (A) (A) (A) (A) (A) (A) (A) (A)
                 (A) (A) (A) (A) (A) (A) (A) (A) (A) (A) (A) (A)
                 (A) (A) (A) (A) (A) (A) (A) (A) (A) (A) (A) (A)
                 (A) (A) (A) (A) (A) (A) (A) (A) (A) (A) (A) (A)
                 (A) (A) (A) (A) (A) (A) (A) (A) (A) (A) (A) (A)
                 (A) (A) (A) (A) (A) (A) (A) (A) (A) (A) (A) (A)
                 (A) (A) (A) (A) (A) (A) (A) (A) (A) (A) (A) (A)
                 (A) (A) (A) (A) (A) (A) (A) (A) (A) (A) (A) (A)
                 (A) (A) (A) (A) (A) (A) (A) (A) (A) (A) (A) (A)
                 (A) (A) (A) (A) (A) (A) (A) (A) (A) (A) (A) (A)
                 (A) (A) (A) (A) (A) (A) (A) (A) (A) (A) (A) (A)
                 (A) (A) (A) (A) (A) (A) (A) (A) (A) (A) (A) (A)
                 (A) (A) (A) (A) (A) (A) (A) (A) (A) (A) (A) (A)
                 (A) (A) (A) (A) (A) (A) (A) (A) (A) (A) (A) (A)
                 (A) (A) (A) (A) (A)
 The electronic state is 1-A.
 Alpha  occ. eigenvalues -- -101.39362 -14.43651 -14.42659 -10.27760 -10.26203
 Alpha  occ. eigenvalues --  -10.26109 -10.25705 -10.23570 -10.17811  -9.30761
 Alpha  occ. eigenvalues --   -7.06617  -7.06567  -7.06552  -1.10221  -0.98517
 Alpha  occ. eigenvalues --   -0.83940  -0.80221  -0.76403  -0.68854  -0.66772
 Alpha  occ. eigenvalues --   -0.65888  -0.62950  -0.58314  -0.53462  -0.51920
 Alpha  occ. eigenvalues --   -0.50242  -0.49816  -0.47890  -0.47262  -0.45987
 Alpha  occ. eigenvalues --   -0.44906  -0.41710  -0.39605  -0.37617  -0.33777
 Alpha  occ. eigenvalues --   -0.30147  -0.20009  -0.19663  -0.19485
 Alpha virt. eigenvalues --   -0.04406  -0.03494  -0.02412  -0.01014   0.00296
 Alpha virt. eigenvalues --    0.01640   0.01855   0.02441   0.03469   0.03764
 Alpha virt. eigenvalues --    0.04736   0.05749   0.06594   0.07093   0.07749
 Alpha virt. eigenvalues --    0.08375   0.08780   0.09140   0.10347   0.10801
 Alpha virt. eigenvalues --    0.11464   0.12324   0.12721   0.13100   0.14022
 Alpha virt. eigenvalues --    0.14292   0.14850   0.15310   0.15886   0.16240
 Alpha virt. eigenvalues --    0.16401   0.16865   0.17345   0.17729   0.18747
 Alpha virt. eigenvalues --    0.19171   0.20045   0.21036   0.21238   0.21843
 Alpha virt. eigenvalues --    0.22179   0.22884   0.23873   0.24784   0.25027
 Alpha virt. eigenvalues --    0.25510   0.26596   0.27573   0.27647   0.28444
 Alpha virt. eigenvalues --    0.29625   0.31606   0.34600   0.35977   0.37610
 Alpha virt. eigenvalues --    0.38096   0.39807   0.40295   0.42446   0.43033
 Alpha virt. eigenvalues --    0.44736   0.47861   0.49159   0.49872   0.52221
 Alpha virt. eigenvalues --    0.53208   0.53533   0.54761   0.55331   0.56545
 Alpha virt. eigenvalues --    0.57081   0.57413   0.58887   0.60409   0.60846
 Alpha virt. eigenvalues --    0.62207   0.62953   0.63774   0.65816   0.66023
 Alpha virt. eigenvalues --    0.67728   0.68052   0.68673   0.70514   0.70909
 Alpha virt. eigenvalues --    0.72525   0.74190   0.75433   0.76603   0.79763
 Alpha virt. eigenvalues --    0.82080   0.83941   0.87550   0.90729   0.91621
 Alpha virt. eigenvalues --    0.92872   0.93861   0.94435   0.99315   1.00945
 Alpha virt. eigenvalues --    1.01040   1.02293   1.02474   1.03864   1.04048
 Alpha virt. eigenvalues --    1.04737   1.06265   1.10142   1.11731   1.12320
 Alpha virt. eigenvalues --    1.19636   1.23414   1.25307   1.28608   1.30157
 Alpha virt. eigenvalues --    1.31862   1.37919   1.38526   1.40565   1.41214
 Alpha virt. eigenvalues --    1.44410   1.46090   1.49437   1.50255   1.51178
 Alpha virt. eigenvalues --    1.53231   1.53963   1.56230   1.57368   1.57490
 Alpha virt. eigenvalues --    1.59235   1.59521   1.61553   1.63442   1.65962
 Alpha virt. eigenvalues --    1.66977   1.68681   1.69566   1.70918   1.73776
 Alpha virt. eigenvalues --    1.76982   1.77747   1.78371   1.80288   1.82843
 Alpha virt. eigenvalues --    1.84531   1.88908   1.93403   1.97426   2.00036
 Alpha virt. eigenvalues --    2.01842   2.05332   2.07643   2.08689   2.09811
 Alpha virt. eigenvalues --    2.14885   2.17533   2.17845   2.19487   2.26170
 Alpha virt. eigenvalues --    2.27726   2.30405   2.36666   2.38053   2.39162
 Alpha virt. eigenvalues --    2.40034   2.42562   2.43628   2.44329   2.46668
 Alpha virt. eigenvalues --    2.47611   2.48093   2.49234   2.51275   2.52959
 Alpha virt. eigenvalues --    2.55834   2.56974   2.57924   2.59421   2.60893
 Alpha virt. eigenvalues --    2.61890   2.62613   2.64639   2.65581   2.69172
 Alpha virt. eigenvalues --    2.71560   2.73138   2.74792   2.76910   2.80469
 Alpha virt. eigenvalues --    2.83953   2.85384   2.88518   2.91968   2.94514
 Alpha virt. eigenvalues --    2.95405   2.96159   3.09856   3.18342   3.26320
 Alpha virt. eigenvalues --    3.35861   3.54689   3.56335   3.61946   3.65488
 Alpha virt. eigenvalues --    3.69587   3.71722   3.76973   3.79319   3.81748
 Alpha virt. eigenvalues --    3.84395   3.86954   3.88632   3.88849   4.07148
 Alpha virt. eigenvalues --    4.21138   4.68866   4.90139   4.92101   5.23189
 Alpha virt. eigenvalues --    9.85271  23.70965  23.83803  23.86342  23.88391
 Alpha virt. eigenvalues --   23.96041  24.13953  25.95773  26.03486  26.19452
 Alpha virt. eigenvalues --   35.42528  35.57449 215.83965
          Condensed to atoms (all electrons):
               1          2          3          4          5          6
     1  C    5.939983  -0.377017  -0.027027   0.073618   0.468159  -0.062898
     2  C   -0.377017   6.236472  -0.066852   0.206692  -0.071577   0.456602
     3  C   -0.027027  -0.066852   5.650025   0.536870   0.013084   0.017668
     4  N    0.073618   0.206692   0.536870   6.740740  -0.060569   0.020361
     5  H    0.468159  -0.071577   0.013084  -0.060569   0.487385  -0.002303
     6  H   -0.062898   0.456602   0.017668   0.020361  -0.002303   0.489000
     7  H    0.031176  -0.072120   0.250986  -0.044110   0.000191   0.000174
     8  N    0.048436   0.147231   0.266091  -0.280932   0.026032  -0.065846
     9  C    0.210885  -0.413561  -0.252783  -0.041356  -0.023263  -0.000166
    10  C   -0.106227   0.133728   0.027548   0.013828   0.008338  -0.000206
    11  H   -0.017529   0.031296   0.027190  -0.033058   0.000045   0.000027
    12  H    0.002599   0.006299   0.019066  -0.040633   0.000161   0.000020
    13  H   -0.000225   0.002122   0.001247   0.023231  -0.000053  -0.000001
    14  H    0.015119  -0.014970  -0.010472  -0.027141  -0.000165   0.000004
    15  H   -0.007726   0.003237   0.011278  -0.007641  -0.000037   0.000005
    16  C   -0.051324  -0.120057  -0.261004  -0.053936   0.001181  -0.002800
    17  H    0.019692  -0.007783  -0.007025  -0.004492  -0.000001  -0.000270
    18  H   -0.002904   0.008198  -0.014298  -0.000569   0.000003  -0.000331
    19  H   -0.002314  -0.005085   0.034885   0.009738   0.000018  -0.000056
    20  Cl   0.019191  -0.026693  -0.023434  -0.016377   0.000064   0.000089
               7          8          9         10         11         12
     1  C    0.031176   0.048436   0.210885  -0.106227  -0.017529   0.002599
     2  C   -0.072120   0.147231  -0.413561   0.133728   0.031296   0.006299
     3  C    0.250986   0.266091  -0.252783   0.027548   0.027190   0.019066
     4  N   -0.044110  -0.280932  -0.041356   0.013828  -0.033058  -0.040633
     5  H    0.000191   0.026032  -0.023263   0.008338   0.000045   0.000161
     6  H    0.000174  -0.065846  -0.000166  -0.000206   0.000027   0.000020
     7  H    0.518718  -0.040607  -0.005603   0.005613   0.000555  -0.004200
     8  N   -0.040607   6.760958  -0.080596   0.010273  -0.005858   0.011910
     9  C   -0.005603  -0.080596   6.718215  -0.418176   0.330207   0.367376
    10  C    0.005613   0.010273  -0.418176   5.549786  -0.016011  -0.017676
    11  H    0.000555  -0.005858   0.330207  -0.016011   0.565521  -0.021403
    12  H   -0.004200   0.011910   0.367376  -0.017676  -0.021403   0.430625
    13  H    0.000085  -0.000695  -0.089903   0.442029  -0.002643  -0.003214
    14  H   -0.000387   0.003361   0.055493   0.348335  -0.009397   0.005243
    15  H    0.001180  -0.001817  -0.037648   0.424845   0.006500  -0.008207
    16  C    0.020170   0.330196  -0.082804   0.012828   0.000859   0.003505
    17  H   -0.000192  -0.044306   0.003343  -0.000704  -0.000006  -0.000012
    18  H   -0.000084  -0.039593  -0.001045   0.000152  -0.000003  -0.000001
    19  H    0.001169  -0.047519   0.002827  -0.000296   0.000001   0.000002
    20  Cl   0.174731   0.007623  -0.130447   0.013506   0.002802   0.028553
              13         14         15         16         17         18
     1  C   -0.000225   0.015119  -0.007726  -0.051324   0.019692  -0.002904
     2  C    0.002122  -0.014970   0.003237  -0.120057  -0.007783   0.008198
     3  C    0.001247  -0.010472   0.011278  -0.261004  -0.007025  -0.014298
     4  N    0.023231  -0.027141  -0.007641  -0.053936  -0.004492  -0.000569
     5  H   -0.000053  -0.000165  -0.000037   0.001181  -0.000001   0.000003
     6  H   -0.000001   0.000004   0.000005  -0.002800  -0.000270  -0.000331
     7  H    0.000085  -0.000387   0.001180   0.020170  -0.000192  -0.000084
     8  N   -0.000695   0.003361  -0.001817   0.330196  -0.044306  -0.039593
     9  C   -0.089903   0.055493  -0.037648  -0.082804   0.003343  -0.001045
    10  C    0.442029   0.348335   0.424845   0.012828  -0.000704   0.000152
    11  H   -0.002643  -0.009397   0.006500   0.000859  -0.000006  -0.000003
    12  H   -0.003214   0.005243  -0.008207   0.003505  -0.000012  -0.000001
    13  H    0.514077  -0.028327  -0.016124  -0.000013   0.000000   0.000000
    14  H   -0.028327   0.570830  -0.031862  -0.000076   0.000000   0.000001
    15  H   -0.016124  -0.031862   0.462747   0.000106  -0.000003  -0.000001
    16  C   -0.000013  -0.000076   0.000106   5.166958   0.402004   0.415590
    17  H    0.000000   0.000000  -0.000003   0.402004   0.521201  -0.037283
    18  H    0.000000   0.000001  -0.000001   0.415590  -0.037283   0.512475
    19  H    0.000000   0.000001   0.000003   0.389157  -0.019085  -0.019443
    20  Cl  -0.000151  -0.000247   0.001909   0.021423  -0.000170  -0.000119
              19         20
     1  C   -0.002314   0.019191
     2  C   -0.005085  -0.026693
     3  C    0.034885  -0.023434
     4  N    0.009738  -0.016377
     5  H    0.000018   0.000064
     6  H   -0.000056   0.000089
     7  H    0.001169   0.174731
     8  N   -0.047519   0.007623
     9  C    0.002827  -0.130447
    10  C   -0.000296   0.013506
    11  H    0.000001   0.002802
    12  H    0.000002   0.028553
    13  H    0.000000  -0.000151
    14  H    0.000001  -0.000247
    15  H    0.000003   0.001909
    16  C    0.389157   0.021423
    17  H   -0.019085  -0.000170
    18  H   -0.019443  -0.000119
    19  H    0.451934   0.000109
    20  Cl   0.000109  17.620142
 Mulliken charges:
               1
     1  C   -0.173667
     2  C   -0.056161
     3  C   -0.193044
     4  N   -0.014265
     5  H    0.153306
     6  H    0.150928
     7  H    0.162557
     8  N   -0.004344
     9  C   -0.110995
    10  C   -0.431514
    11  H    0.140906
    12  H    0.219986
    13  H    0.158558
    14  H    0.124658
    15  H    0.199256
    16  C   -0.191962
    17  H    0.175092
    18  H    0.179256
    19  H    0.203953
    20  Cl  -0.692504
 Sum of Mulliken charges =   0.00000
 Mulliken charges with hydrogens summed into heavy atoms:
               1
     1  C   -0.020361
     2  C    0.094767
     3  C   -0.030487
     4  N   -0.014265
     8  N   -0.004344
     9  C    0.249898
    10  C    0.050958
    16  C    0.366339
    20  Cl  -0.692504
 Electronic spatial extent (au):  <R**2>=           1809.9823
 Charge=              0.0000 electrons
 Dipole moment (field-independent basis, Debye):
    X=            -11.1043    Y=              5.7479    Z=              0.2719  Tot=             12.5067
 Quadrupole moment (field-independent basis, Debye-Ang):
   XX=            -70.5176   YY=            -61.8624   ZZ=            -65.2100
   XY=             19.4495   XZ=             -0.1897   YZ=             -2.9721
 Traceless Quadrupole moment (field-independent basis, Debye-Ang):
   XX=             -4.6543   YY=              4.0009   ZZ=              0.6533
   XY=             19.4495   XZ=             -0.1897   YZ=             -2.9721
 Octapole moment (field-independent basis, Debye-Ang**2):
  XXX=            -95.0241  YYY=             25.0016  ZZZ=              1.5129  XYY=            -40.3898
  XXY=             33.7183  XXZ=              4.9592  XZZ=             -3.5642  YZZ=              1.3604
  YYZ=             -0.9456  XYZ=              0.4612
 Hexadecapole moment (field-independent basis, Debye-Ang**3):
 XXXX=          -1411.4478 YYYY=           -922.7199 ZZZZ=           -157.4831 XXXY=            130.7189
 XXXZ=             -2.5267 YYYX=             76.4462 YYYZ=            -19.9344 ZZZX=             -3.8081
 ZZZY=             -5.5637 XXYY=           -408.3443 XXZZ=           -266.0366 YYZZ=           -185.5852
 XXYZ=             -9.2251 YYXZ=              2.1112 ZZXY=             17.3968
 N-N= 5.178106518760D+02 E-N=-2.930146807441D+03  KE= 8.024502005691D+02
 Calling FoFJK, ICntrl=      2127 FMM=F ISym2X=0 I1Cent= 0 IOpClX= 0 NMat=1 NMatS=1 NMatT=0.
 ***** Axes restored to original set *****
 -------------------------------------------------------------------
 Center     Atomic                   Forces (Hartrees/Bohr)
 Number     Number              X              Y              Z
 -------------------------------------------------------------------
      1        6           0.000004386   -0.000000250    0.000242063
      2        6           0.000007485    0.000018263    0.000015864
      3        6          -0.000013975   -0.000019701   -0.000072617
      4        7          -0.000040859    0.000011422   -0.000258608
      5        1          -0.000005748    0.000000577    0.000002210
      6        1          -0.000002717   -0.000000322    0.000004742
      7        1           0.000006669   -0.000014165    0.000003400
      8        7          -0.000022345    0.000016882   -0.000025876
      9        6           0.000005638    0.000049605    0.000057306
     10        6          -0.000021897   -0.000006335   -0.000015012
     11        1           0.000004548    0.000008697    0.000002560
     12        1           0.000032888   -0.000072029   -0.000068399
     13        1           0.000006942    0.000001971   -0.000000895
     14        1           0.000004564    0.000002036   -0.000009149
     15        1           0.000004743   -0.000007401    0.000008232
     16        6           0.000013315    0.000012665   -0.000005530
     17        1           0.000002993   -0.000000340    0.000002211
     18        1          -0.000002621    0.000000606    0.000001489
     19        1           0.000002233   -0.000000679   -0.000000890
     20       17           0.000013760   -0.000001502    0.000116898
 -------------------------------------------------------------------
 Cartesian Forces:  Max     0.000258608 RMS     0.000052868

 GradGradGradGradGradGradGradGradGradGradGradGradGradGradGradGradGradGrad
 Berny optimization.
 FormGI is forming the generalized inverse of G from B-inverse, IUseBI=4.
 Internal  Forces:  Max     0.000314687 RMS     0.000046853
 Search for a local minimum.
 Step number   1 out of a maximum of  109
 All quantities printed in internal units (Hartrees-Bohrs-Radians)
 Mixed Optimization -- En-DIIS/RFO-DIIS
 Second derivative matrix not updated -- first step.
 ITU=  0
     Eigenvalues ---    0.00283   0.00465   0.00870   0.01002   0.01493
     Eigenvalues ---    0.01641   0.01988   0.02110   0.02166   0.02377
     Eigenvalues ---    0.02393   0.02506   0.04177   0.04892   0.05547
     Eigenvalues ---    0.05905   0.07278   0.07516   0.07734   0.12001
     Eigenvalues ---    0.15998   0.15999   0.16000   0.16000   0.16000
     Eigenvalues ---    0.16000   0.16000   0.16000   0.16000   0.17203
     Eigenvalues ---    0.19898   0.22828   0.23549   0.24947   0.24999
     Eigenvalues ---    0.30106   0.31458   0.34405   0.34588   0.34596
     Eigenvalues ---    0.34624   0.34653   0.34665   0.34769   0.34784
     Eigenvalues ---    0.35028   0.36483   0.36486   0.36702   0.43070
     Eigenvalues ---    0.46094   0.49321   0.55438   0.56209
 RFO step:  Lambda=-9.36313519D-06 EMin= 2.82954442D-03
 Linear search not attempted -- first point.
 Iteration  1 RMS(Cart)=  0.00776583 RMS(Int)=  0.00004087
 Iteration  2 RMS(Cart)=  0.00004170 RMS(Int)=  0.00000898
 Iteration  3 RMS(Cart)=  0.00000000 RMS(Int)=  0.00000898
 Variable       Old X    -DE/DX   Delta X   Delta X   Delta X     New X
                                 (Linear)    (Quad)   (Total)
    R1        2.57144  -0.00002   0.00000  -0.00004  -0.00004   2.57140
    R2        2.61446   0.00004   0.00000   0.00008   0.00008   2.61454
    R3        2.03328   0.00000   0.00000  -0.00001  -0.00001   2.03327
    R4        2.03333   0.00000   0.00000   0.00001   0.00001   2.03333
    R5        2.62160   0.00000   0.00000  -0.00001  -0.00001   2.62158
    R6        2.52627   0.00001   0.00000   0.00003   0.00003   2.52630
    R7        2.11848   0.00002   0.00000   0.00005   0.00005   2.11852
    R8        2.53184   0.00003   0.00000   0.00005   0.00005   2.53189
    R9        2.79590   0.00004   0.00000   0.00011   0.00011   2.79602
   R10        2.76298  -0.00002   0.00000  -0.00005  -0.00005   2.76293
   R11        2.87753  -0.00001   0.00000  -0.00005  -0.00005   2.87748
   R12        2.06243   0.00001   0.00000   0.00002   0.00002   2.06244
   R13        2.06213   0.00007   0.00000   0.00021   0.00021   2.06233
   R14        2.06349   0.00001   0.00000   0.00002   0.00002   2.06351
   R15        2.06652   0.00000   0.00000  -0.00001  -0.00001   2.06651
   R16        2.06222   0.00001   0.00000   0.00002   0.00002   2.06224
   R17        5.09507   0.00002   0.00000   0.00067   0.00068   5.09574
   R18        2.06027   0.00000   0.00000   0.00000   0.00000   2.06027
   R19        2.06051   0.00000   0.00000   0.00000   0.00000   2.06051
   R20        2.05630   0.00000   0.00000   0.00000   0.00000   2.05630
    A1        1.86755   0.00002   0.00000   0.00008   0.00008   1.86763
    A2        2.28301  -0.00001   0.00000  -0.00007  -0.00007   2.28294
    A3        2.13261   0.00000   0.00000   0.00000   0.00000   2.13261
    A4        2.28721   0.00001   0.00000   0.00005   0.00005   2.28725
    A5        1.86041  -0.00001   0.00000  -0.00006  -0.00006   1.86036
    A6        2.13554   0.00000   0.00000   0.00001   0.00001   2.13556
    A7        2.13139   0.00000   0.00000  -0.00001  -0.00001   2.13138
    A8        1.87997  -0.00001   0.00000  -0.00002  -0.00002   1.87995
    A9        2.27177   0.00001   0.00000   0.00003   0.00003   2.27180
   A10        1.90864  -0.00001   0.00000  -0.00006  -0.00006   1.90858
   A11        2.21467   0.00001   0.00000   0.00001   0.00001   2.21467
   A12        2.15861   0.00001   0.00000   0.00000   0.00000   2.15861
   A13        1.90819   0.00002   0.00000   0.00006   0.00006   1.90825
   A14        2.20668  -0.00001   0.00000  -0.00004  -0.00004   2.20665
   A15        2.16828  -0.00001   0.00000  -0.00002  -0.00002   2.16826
   A16        1.94549   0.00002   0.00000   0.00000   0.00001   1.94550
   A17        1.86143  -0.00002   0.00000   0.00001   0.00001   1.86144
   A18        1.85481   0.00002   0.00000   0.00012   0.00012   1.85493
   A19        1.96190  -0.00001   0.00000  -0.00006  -0.00006   1.96184
   A20        1.91789  -0.00007   0.00000  -0.00057  -0.00058   1.91731
   A21        1.91863   0.00005   0.00000   0.00054   0.00055   1.91918
   A22        1.90538   0.00000   0.00000  -0.00002  -0.00002   1.90536
   A23        1.95257  -0.00001   0.00000  -0.00007  -0.00007   1.95249
   A24        1.91310   0.00002   0.00000   0.00012   0.00012   1.91323
   A25        1.89305   0.00000   0.00000  -0.00006  -0.00006   1.89299
   A26        1.88067   0.00000   0.00000  -0.00001  -0.00001   1.88066
   A27        1.91754   0.00000   0.00000   0.00004   0.00004   1.91758
   A28        2.26794  -0.00025   0.00000  -0.00081  -0.00085   2.26709
   A29        1.91659   0.00000   0.00000  -0.00002  -0.00002   1.91657
   A30        1.91842   0.00000   0.00000   0.00003   0.00003   1.91845
   A31        1.88790   0.00000   0.00000  -0.00003  -0.00003   1.88788
   A32        1.91827   0.00000   0.00000   0.00001   0.00001   1.91828
   A33        1.91125   0.00000   0.00000   0.00000   0.00000   1.91125
   A34        1.91113   0.00000   0.00000   0.00001   0.00001   1.91114
    D1       -3.13041   0.00000   0.00000   0.00003   0.00003  -3.13038
    D2        0.00421   0.00000   0.00000   0.00001   0.00001   0.00422
    D3        0.00593   0.00000   0.00000   0.00006   0.00006   0.00599
    D4        3.14055   0.00000   0.00000   0.00003   0.00003   3.14059
    D5       -0.00556  -0.00001   0.00000  -0.00048  -0.00048  -0.00604
    D6       -3.09420   0.00001   0.00000   0.00057   0.00057  -3.09363
    D7        3.14073  -0.00001   0.00000  -0.00050  -0.00050   3.14023
    D8        0.05209   0.00001   0.00000   0.00055   0.00055   0.05264
    D9       -0.00150   0.00001   0.00000   0.00046   0.00046  -0.00104
   D10       -3.13461   0.00000   0.00000   0.00002   0.00002  -3.13459
   D11        3.13387   0.00001   0.00000   0.00044   0.00044   3.13431
   D12        0.00076   0.00000   0.00000   0.00000   0.00000   0.00076
   D13       -3.12664   0.00001   0.00000   0.00046   0.00046  -3.12618
   D14       -0.03594  -0.00001   0.00000  -0.00055  -0.00055  -0.03649
   D15        0.00462   0.00002   0.00000   0.00076   0.00077   0.00539
   D16        3.09533   0.00000   0.00000  -0.00024  -0.00025   3.09508
   D17       -3.11277   0.00031   0.00000   0.01528   0.01521  -3.09756
   D18       -0.00193  -0.00002   0.00000  -0.00076  -0.00076  -0.00269
   D19        3.13140  -0.00001   0.00000  -0.00033  -0.00033   3.13107
   D20        3.12821  -0.00001   0.00000  -0.00042  -0.00042   3.12780
   D21       -0.02164   0.00000   0.00000   0.00001   0.00001  -0.02163
   D22        1.52892  -0.00005   0.00000  -0.00705  -0.00707   1.52186
   D23       -0.61849  -0.00005   0.00000  -0.00698  -0.00699  -0.62549
   D24       -2.66497  -0.00011   0.00000  -0.00767  -0.00769  -2.67265
   D25       -1.55263  -0.00002   0.00000  -0.00586  -0.00587  -1.55850
   D26        2.58314  -0.00002   0.00000  -0.00579  -0.00580   2.57734
   D27        0.53667  -0.00009   0.00000  -0.00647  -0.00649   0.53018
   D28       -1.03262   0.00000   0.00000   0.00008   0.00008  -1.03254
   D29        1.07979   0.00000   0.00000   0.00009   0.00009   1.07988
   D30       -3.11754   0.00000   0.00000   0.00010   0.00010  -3.11744
   D31        2.11866  -0.00001   0.00000  -0.00043  -0.00043   2.11823
   D32       -2.05212  -0.00001   0.00000  -0.00041  -0.00041  -2.05253
   D33        0.03374   0.00000   0.00000  -0.00040  -0.00040   0.03333
   D34       -3.10142   0.00000   0.00000  -0.00005  -0.00005  -3.10146
   D35       -1.00600   0.00000   0.00000  -0.00019  -0.00019  -1.00619
   D36        1.12553   0.00000   0.00000  -0.00009  -0.00009   1.12543
   D37       -1.01250   0.00000   0.00000  -0.00008  -0.00008  -1.01258
   D38        1.08291  -0.00001   0.00000  -0.00021  -0.00022   1.08269
   D39       -3.06875  -0.00001   0.00000  -0.00012  -0.00012  -3.06887
   D40        1.13020   0.00001   0.00000   0.00016   0.00017   1.13037
   D41       -3.05757   0.00000   0.00000   0.00002   0.00003  -3.05754
   D42       -0.92604   0.00001   0.00000   0.00012   0.00012  -0.92592
   D43       -0.98846  -0.00004   0.00000  -0.01380  -0.01380  -1.00226
   D44        1.11872  -0.00004   0.00000  -0.01404  -0.01405   1.10468
   D45       -2.99642  -0.00006   0.00000  -0.01414  -0.01415  -3.01057
         Item               Value     Threshold  Converged?
 Maximum Force            0.000315     0.000450     YES
 RMS     Force            0.000047     0.000300     YES
 Maximum Displacement     0.043333     0.001800     NO 
 RMS     Displacement     0.007779     0.001200     NO 
 Predicted change in Energy=-4.695352D-06
 GradGradGradGradGradGradGradGradGradGradGradGradGradGradGradGradGradGrad

                          Input orientation:                          
 ---------------------------------------------------------------------
 Center     Atomic      Atomic             Coordinates (Angstroms)
 Number     Number       Type             X           Y           Z
 ---------------------------------------------------------------------
      1          6           0       -0.360623    1.845436   -0.182903
      2          6           0       -1.689652    1.695725    0.067791
      3          6           0       -0.796476   -0.330805   -0.146312
      4          7           0        0.171544    0.575347   -0.316662
      5          1           0        0.241006    2.732155   -0.280174
      6          1           0       -2.465494    2.424428    0.225350
      7          1           0       -0.596753   -1.432835   -0.195783
      8          7           0       -1.937891    0.330967    0.086788
      9          6           0        1.592023    0.226461   -0.539591
     10          6           0        2.348098    0.100653    0.776134
     11          1           0        2.007025    1.002331   -1.185308
     12          1           0        1.593387   -0.732269   -1.060991
     13          1           0        3.397678   -0.116402    0.567198
     14          1           0        2.295370    1.020106    1.365773
     15          1           0        1.944184   -0.733307    1.352572
     16          6           0       -3.230910   -0.313309    0.311921
     17          1           0       -3.624776   -0.021127    1.285647
     18          1           0       -3.930861   -0.025915   -0.473186
     19          1           0       -3.081622   -1.390920    0.288832
     20         17           0        0.517703   -3.096488   -0.336585
 ---------------------------------------------------------------------
                    Distance matrix (angstroms):
                    1          2          3          4          5
     1  C    0.000000
     2  C    1.360727   0.000000
     3  C    2.219759   2.224956   0.000000
     4  N    1.383554   2.206151   1.336859   0.000000
     5  H    1.075959   2.218717   3.236666   2.158235   0.000000
     6  H    2.220897   1.075994   3.242694   3.266014   2.770450
     7  H    3.286790   3.324424   1.121074   2.153529   4.249247
     8  N    2.203208   1.387281   1.339816   2.161530   3.263120
     9  C    2.561471   3.646511   2.483977   1.479588   2.858504
    10  C    3.361724   4.398799   3.305360   2.481315   3.532765
    11  H    2.705808   3.964401   3.273588   2.075054   2.632562
    12  H    3.351680   4.236467   2.590223   2.070150   3.800111
    13  H    4.305378   5.423480   4.259811   3.415796   4.335538
    14  H    3.183373   4.245187   3.697414   2.745730   3.140169
    15  H    3.784142   4.555834   3.149584   2.764266   4.192386
    16  C    3.625407   2.543874   2.477247   3.572327   4.656138
    17  H    4.036755   2.859276   3.185230   4.163559   4.997662
    18  H    4.041388   2.877450   3.166097   4.149185   5.004865
    19  H    4.254453   3.393202   2.556382   3.849145   5.325727
    20  Cl   5.021722   5.291620   3.067943   3.688169   5.835479
                    6          7          8          9         10
     6  H    0.000000
     7  H    4.306742   0.000000
     8  N    2.163363   2.233719   0.000000
     9  C    4.677568   2.768069   3.586582   0.000000
    10  C    5.373450   3.459531   4.347177   1.522698   0.000000
    11  H    4.900586   3.699845   4.198966   1.091399   2.185545
    12  H    5.300370   2.456845   3.862356   1.091341   2.153689
    13  H    6.399176   4.274413   5.375800   2.145443   1.091964
    14  H    5.092986   4.101189   4.475624   2.180592   1.093549
    15  H    5.539601   3.056649   4.219644   2.150686   1.091291
    16  C    2.844039   2.906869   1.462078   4.927180   5.613571
    17  H    2.906699   3.654652   2.099241   5.532431   5.995803
    18  H    2.939291   3.629415   2.100681   5.529046   6.403291
    19  H    3.865297   2.532032   2.076978   5.014495   5.651912
    20  Cl   6.300456   2.007380   4.237527   3.498195   3.848402
                   11         12         13         14         15
    11  H    0.000000
    12  H    1.787565   0.000000
    13  H    2.501351   2.507141   0.000000
    14  H    2.567386   3.074538   1.773261   0.000000
    15  H    3.075260   2.438923   1.763527   1.788285   0.000000
    16  C    5.604334   5.033314   6.636423   5.781727   5.295370
    17  H    6.234602   5.765558   7.059752   6.011548   5.614712
    18  H    6.068187   5.600157   7.402571   6.575855   6.192733
    19  H    5.813352   4.910351   6.609327   5.990400   5.179066
    20  Cl   4.442829   2.696551   4.241697   4.796297   3.236159
                   16         17         18         19         20
    16  C    0.000000
    17  H    1.090249   0.000000
    18  H    1.090376   1.785274   0.000000
    19  H    1.088148   1.779041   1.779077   0.000000
    20  Cl   4.713676   5.408291   5.407106   4.031780   0.000000
 Stoichiometry    C6H11ClN2
 Framework group  C1[X(C6H11ClN2)]
 Deg. of freedom    54
 Full point group                 C1      NOp   1
 Largest Abelian subgroup         C1      NOp   1
 Largest concise Abelian subgroup C1      NOp   1
                         Standard orientation:                         
 ---------------------------------------------------------------------
 Center     Atomic      Atomic             Coordinates (Angstroms)
 Number     Number       Type             X           Y           Z
 ---------------------------------------------------------------------
      1          6           0       -1.503719    1.532115   -0.270216
      2          6           0       -2.416333    0.551941   -0.029445
      3          6           0       -0.400654   -0.387075   -0.105028
      4          7           0       -0.261193    0.925395   -0.317549
      5          1           0       -1.630429    2.590902   -0.413755
      6          1           0       -3.486791    0.592502    0.071747
      7          1           0        0.477223   -1.083975   -0.083328
      8          7           0       -1.705533   -0.635203    0.070558
      9          6           0        1.046841    1.592856   -0.498440
     10          6           0        1.629869    2.046521    0.833053
     11          1           0        0.881119    2.424852   -1.185077
     12          1           0        1.705686    0.854967   -0.959383
     13          1           0        2.571829    2.568618    0.652744
     14          1           0        0.954785    2.723582    1.363807
     15          1           0        1.845716    1.175675    1.454304
     16          6           0       -2.264279   -1.963646    0.316961
     17          1           0       -2.802506   -1.968085    1.265082
     18          1           0       -2.938793   -2.239251   -0.494206
     19          1           0       -1.441715   -2.674529    0.362768
     20         17           0        2.416506   -1.601934   -0.105122
 ---------------------------------------------------------------------
 Rotational constants (GHZ):      1.5099342      0.9567945      0.6206646
 Standard basis: 6-311+G(d,p) (5D, 7F)
 There are   281 symmetry adapted cartesian basis functions of A   symmetry.
 There are   272 symmetry adapted basis functions of A   symmetry.
   272 basis functions,   429 primitive gaussians,   281 cartesian basis functions
    39 alpha electrons       39 beta electrons
       nuclear repulsion energy       517.5443247075 Hartrees.
 NAtoms=   20 NActive=   20 NUniq=   20 SFac= 1.00D+00 NAtFMM=   60 NAOKFM=F Big=F
 Integral buffers will be    131072 words long.
 Raffenetti 2 integral format.
 Two-electron integral symmetry is turned on.
 Nuclear repulsion after empirical dispersion term =      517.5120570305 Hartrees.
 One-electron integrals computed using PRISM.
 NBasis=   272 RedAO= T EigKep=  1.88D-05  NBF=   272
 NBsUse=   272 1.00D-06 EigRej= -1.00D+00 NBFU=   272
 Initial guess from the checkpoint file:  "CJS1_emim-cl_FE_6-311+g-d-p-_gd3bj_opt-modredundant_unfrz.chk"
 B after Tr=     0.000000    0.000000    0.000000
         Rot=    0.999999   -0.000273   -0.000045   -0.001534 Ang=  -0.18 deg.
 ExpMin= 4.38D-02 ExpMax= 1.06D+05 ExpMxC= 3.62D+03 IAcc=2 IRadAn=         4 AccDes= 0.00D+00
 Harris functional with IExCor=  402 and IRadAn=       4 diagonalized for initial guess.
 HarFok:  IExCor=  402 AccDes= 0.00D+00 IRadAn=         4 IDoV= 1 UseB2=F ITyADJ=14
 ICtDFT=  3500011 ScaDFX=  1.000000  1.000000  1.000000  1.000000
 FoFCou: FMM=F IPFlag=           0 FMFlag=      100000 FMFlg1=           0
         NFxFlg=           0 DoJE=T BraDBF=F KetDBF=T FulRan=T
         wScrn=  0.000000 ICntrl=     500 IOpCl=  0 I1Cent=   200000004 NGrid=           0
         NMat0=    1 NMatS0=      1 NMatT0=    0 NMatD0=    1 NMtDS0=    0 NMtDT0=    0
 Petite list used in FoFCou.
 Keep R1 ints in memory in canonical form, NReq=700735283.
 Requested convergence on RMS density matrix=1.00D-09 within 128 cycles.
 Requested convergence on MAX density matrix=1.00D-07.
 Requested convergence on             energy=1.00D-07.
 No special actions if energy rises.
 SCF Done:  E(RB3LYP) =  -805.117134979     A.U. after   12 cycles
            NFock= 12  Conv=0.72D-09     -V/T= 2.0033
 Calling FoFJK, ICntrl=      2127 FMM=F ISym2X=0 I1Cent= 0 IOpClX= 0 NMat=1 NMatS=1 NMatT=0.
 ***** Axes restored to original set *****
 -------------------------------------------------------------------
 Center     Atomic                   Forces (Hartrees/Bohr)
 Number     Number              X              Y              Z
 -------------------------------------------------------------------
      1        6           0.000054972   -0.000106132    0.000221876
      2        6           0.000047388   -0.000084608    0.000008153
      3        6           0.000300179   -0.000781330   -0.000669910
      4        7          -0.000031316   -0.000080893   -0.000143818
      5        1           0.000009473   -0.000013406    0.000005448
      6        1          -0.000006392   -0.000024261    0.000016226
      7        1           0.000132832    0.000378015    0.000376751
      8        7          -0.000087166   -0.000155734    0.000064874
      9        6           0.000117605   -0.000030135    0.000060716
     10        6          -0.000039665    0.000026203    0.000066133
     11        1          -0.000008867   -0.000005684   -0.000026082
     12        1           0.000037803   -0.000013641   -0.000034791
     13        1          -0.000018459   -0.000004971   -0.000016586
     14        1           0.000017792    0.000036784   -0.000006409
     15        1           0.000006375   -0.000033990   -0.000053541
     16        6          -0.000036543   -0.000001166    0.000003510
     17        1           0.000007915   -0.000016755   -0.000003921
     18        1           0.000003060    0.000007499    0.000002017
     19        1          -0.000018507    0.000002560    0.000030174
     20       17          -0.000488478    0.000901646    0.000099178
 -------------------------------------------------------------------
 Cartesian Forces:  Max     0.000901646 RMS     0.000211732

 GradGradGradGradGradGradGradGradGradGradGradGradGradGradGradGradGradGrad
 Berny optimization.
 Using GEDIIS/GDIIS optimizer.
 FormGI is forming the generalized inverse of G from B-inverse, IUseBI=4.
 Internal  Forces:  Max     0.002438603 RMS     0.000481466
 Search for a local minimum.
 Step number   2 out of a maximum of  109
 All quantities printed in internal units (Hartrees-Bohrs-Radians)
 Mixed Optimization -- En-DIIS/RFO-DIIS
 Swapping is turned off.
 Update second derivatives using D2CorX and points    1    2
 DE=  9.76D-06 DEPred=-4.70D-06 R=-2.08D+00
 Trust test=-2.08D+00 RLast= 3.31D-02 DXMaxT set to 1.50D-01
 ITU= -1  0
     Eigenvalues ---    0.00214   0.00465   0.00870   0.00931   0.01463
     Eigenvalues ---    0.01633   0.02108   0.02129   0.02169   0.02376
     Eigenvalues ---    0.02394   0.02567   0.04719   0.05546   0.05898
     Eigenvalues ---    0.06196   0.07335   0.07516   0.07735   0.13027
     Eigenvalues ---    0.15994   0.15999   0.16000   0.16000   0.16000
     Eigenvalues ---    0.16000   0.16000   0.16000   0.16006   0.18150
     Eigenvalues ---    0.22320   0.23157   0.23552   0.24999   0.30104
     Eigenvalues ---    0.31296   0.33603   0.34405   0.34588   0.34607
     Eigenvalues ---    0.34652   0.34665   0.34769   0.34784   0.35028
     Eigenvalues ---    0.36483   0.36486   0.36694   0.42833   0.46082
     Eigenvalues ---    0.49131   0.55429   0.56193   0.75254
 En-DIIS/RFO-DIIS IScMMF=        0 using points:     2    1
 RFO step:  Lambda=-2.88192873D-05.
 DidBck=T Rises=F RFO-DIIS coefs:    0.24274    0.75726
 Iteration  1 RMS(Cart)=  0.02990987 RMS(Int)=  0.00031716
 Iteration  2 RMS(Cart)=  0.00037747 RMS(Int)=  0.00003761
 Iteration  3 RMS(Cart)=  0.00000007 RMS(Int)=  0.00003761
 Variable       Old X    -DE/DX   Delta X   Delta X   Delta X     New X
                                 (Linear)    (Quad)   (Total)
    R1        2.57140   0.00016   0.00003  -0.00012  -0.00010   2.57131
    R2        2.61454  -0.00026  -0.00006   0.00028   0.00022   2.61476
    R3        2.03327  -0.00001   0.00001  -0.00005  -0.00004   2.03323
    R4        2.03333  -0.00001   0.00000   0.00003   0.00002   2.03336
    R5        2.62158   0.00014   0.00001   0.00000   0.00001   2.62159
    R6        2.52630  -0.00006  -0.00002   0.00011   0.00009   2.52639
    R7        2.11852  -0.00036  -0.00004  -0.00002  -0.00006   2.11847
    R8        2.53189  -0.00005  -0.00004   0.00023   0.00019   2.53208
    R9        2.79602  -0.00058  -0.00009   0.00021   0.00012   2.79614
   R10        2.76293   0.00005   0.00004  -0.00026  -0.00022   2.76270
   R11        2.87748  -0.00003   0.00004  -0.00028  -0.00024   2.87724
   R12        2.06244   0.00001  -0.00001   0.00010   0.00009   2.06253
   R13        2.06233  -0.00073  -0.00016   0.00050   0.00036   2.06270
   R14        2.06351  -0.00001  -0.00001   0.00009   0.00007   2.06358
   R15        2.06651   0.00003   0.00001  -0.00003  -0.00002   2.06649
   R16        2.06224   0.00000  -0.00002   0.00013   0.00011   2.06235
   R17        5.09574  -0.00060  -0.00051  -0.00279  -0.00332   5.09243
   R18        2.06027  -0.00001   0.00000  -0.00001  -0.00001   2.06027
   R19        2.06051   0.00000   0.00000   0.00002   0.00002   2.06053
   R20        2.05630  -0.00001   0.00000   0.00001   0.00001   2.05631
    A1        1.86763  -0.00023  -0.00006   0.00016   0.00011   1.86773
    A2        2.28294   0.00013   0.00005  -0.00024  -0.00019   2.28275
    A3        2.13261   0.00010   0.00000   0.00008   0.00008   2.13269
    A4        2.28725  -0.00004  -0.00003   0.00020   0.00017   2.28742
    A5        1.86036   0.00013   0.00004  -0.00014  -0.00010   1.86026
    A6        2.13556  -0.00009  -0.00001  -0.00006  -0.00007   2.13549
    A7        2.13138  -0.00012   0.00001  -0.00024  -0.00023   2.13115
    A8        1.87995  -0.00003   0.00002  -0.00017  -0.00015   1.87980
    A9        2.27180   0.00015  -0.00003   0.00041   0.00038   2.27218
   A10        1.90858   0.00027   0.00005  -0.00009  -0.00005   1.90853
   A11        2.21467   0.00126   0.00000   0.00116   0.00115   2.21583
   A12        2.15861  -0.00153   0.00000  -0.00147  -0.00148   2.15713
   A13        1.90825  -0.00014  -0.00005   0.00021   0.00016   1.90840
   A14        2.20665   0.00003   0.00003  -0.00018  -0.00015   2.20650
   A15        2.16826   0.00011   0.00002  -0.00001   0.00001   2.16827
   A16        1.94550   0.00014   0.00000  -0.00024  -0.00028   1.94521
   A17        1.86144   0.00071  -0.00001   0.00238   0.00238   1.86382
   A18        1.85493  -0.00169  -0.00009  -0.00469  -0.00478   1.85015
   A19        1.96184  -0.00036   0.00005   0.00061   0.00066   1.96250
   A20        1.91731   0.00095   0.00044  -0.00329  -0.00281   1.91450
   A21        1.91918   0.00015  -0.00042   0.00520   0.00474   1.92392
   A22        1.90536  -0.00003   0.00002  -0.00019  -0.00017   1.90519
   A23        1.95249   0.00001   0.00005  -0.00035  -0.00030   1.95220
   A24        1.91323  -0.00005  -0.00009   0.00060   0.00051   1.91373
   A25        1.89299   0.00001   0.00005  -0.00034  -0.00029   1.89270
   A26        1.88066   0.00001   0.00001  -0.00009  -0.00008   1.88057
   A27        1.91758   0.00005  -0.00003   0.00036   0.00033   1.91791
   A28        2.26709  -0.00244   0.00065  -0.00847  -0.00763   2.25946
   A29        1.91657   0.00000   0.00002  -0.00014  -0.00012   1.91645
   A30        1.91845  -0.00001  -0.00002   0.00016   0.00014   1.91858
   A31        1.88788   0.00003   0.00002  -0.00009  -0.00007   1.88781
   A32        1.91828   0.00000  -0.00001   0.00005   0.00004   1.91832
   A33        1.91125  -0.00003   0.00000  -0.00005  -0.00005   1.91120
   A34        1.91114   0.00000   0.00000   0.00006   0.00005   1.91120
    D1       -3.13038  -0.00003  -0.00003   0.00014   0.00011  -3.13026
    D2        0.00422   0.00002  -0.00001   0.00086   0.00084   0.00506
    D3        0.00599  -0.00001  -0.00004   0.00017   0.00013   0.00611
    D4        3.14059   0.00004  -0.00002   0.00088   0.00085   3.14144
    D5       -0.00604   0.00000   0.00036  -0.00355  -0.00318  -0.00922
    D6       -3.09363   0.00006  -0.00043   0.00462   0.00418  -3.08945
    D7        3.14023  -0.00001   0.00038  -0.00357  -0.00319   3.13704
    D8        0.05264   0.00004  -0.00042   0.00460   0.00417   0.05681
    D9       -0.00104  -0.00004  -0.00035   0.00211   0.00176   0.00072
   D10       -3.13459  -0.00006  -0.00001  -0.00097  -0.00098  -3.13557
   D11        3.13431   0.00000  -0.00033   0.00275   0.00241   3.13672
   D12        0.00076  -0.00002   0.00000  -0.00033  -0.00033   0.00043
   D13       -3.12618   0.00016  -0.00035   0.00497   0.00462  -3.12157
   D14       -0.03649   0.00020   0.00042  -0.00278  -0.00235  -0.03884
   D15        0.00539  -0.00003  -0.00058   0.00486   0.00428   0.00966
   D16        3.09508   0.00002   0.00019  -0.00289  -0.00269   3.09239
   D17       -3.09756   0.00100  -0.01152   0.07143   0.06017  -3.03739
   D18       -0.00269   0.00004   0.00057  -0.00432  -0.00374  -0.00643
   D19        3.13107   0.00007   0.00025  -0.00132  -0.00107   3.13000
   D20        3.12780  -0.00016   0.00032  -0.00445  -0.00413   3.12367
   D21       -0.02163  -0.00014  -0.00001  -0.00145  -0.00146  -0.02308
   D22        1.52186   0.00014   0.00535  -0.04752  -0.04213   1.47973
   D23       -0.62549   0.00003   0.00530  -0.04970  -0.04436  -0.66984
   D24       -2.67265   0.00034   0.00582  -0.05454  -0.04862  -2.72128
   D25       -1.55850   0.00014   0.00444  -0.03831  -0.03385  -1.59234
   D26        2.57734   0.00002   0.00439  -0.04049  -0.03607   2.54127
   D27        0.53018   0.00033   0.00492  -0.04534  -0.04034   0.48984
   D28       -1.03254   0.00001  -0.00006   0.00085   0.00079  -1.03175
   D29        1.07988   0.00001  -0.00007   0.00092   0.00085   1.08073
   D30       -3.11744   0.00003  -0.00008   0.00104   0.00096  -3.11648
   D31        2.11823  -0.00001   0.00032  -0.00267  -0.00234   2.11589
   D32       -2.05253  -0.00002   0.00031  -0.00259  -0.00228  -2.05481
   D33        0.03333   0.00000   0.00030  -0.00248  -0.00217   0.03116
   D34       -3.10146  -0.00073   0.00004  -0.00361  -0.00357  -3.10503
   D35       -1.00619  -0.00073   0.00014  -0.00438  -0.00423  -1.01042
   D36        1.12543  -0.00070   0.00007  -0.00374  -0.00366   1.12178
   D37       -1.01258   0.00004   0.00006  -0.00032  -0.00025  -1.01283
   D38        1.08269   0.00004   0.00016  -0.00109  -0.00092   1.08178
   D39       -3.06887   0.00007   0.00009  -0.00044  -0.00035  -3.06922
   D40        1.13037   0.00067  -0.00013   0.00442   0.00427   1.13465
   D41       -3.05754   0.00067  -0.00002   0.00365   0.00361  -3.05393
   D42       -0.92592   0.00070  -0.00009   0.00429   0.00418  -0.92174
   D43       -1.00226   0.00101   0.01045  -0.00871   0.00176  -1.00050
   D44        1.10468   0.00071   0.01064  -0.01361  -0.00294   1.10174
   D45       -3.01057   0.00101   0.01071  -0.01154  -0.00078  -3.01135
         Item               Value     Threshold  Converged?
 Maximum Force            0.002439     0.000450     NO 
 RMS     Force            0.000481     0.000300     NO 
 Maximum Displacement     0.172549     0.001800     NO 
 RMS     Displacement     0.029877     0.001200     NO 
 Predicted change in Energy=-3.297903D-05
 GradGradGradGradGradGradGradGradGradGradGradGradGradGradGradGradGradGrad

                          Input orientation:                          
 ---------------------------------------------------------------------
 Center     Atomic      Atomic             Coordinates (Angstroms)
 Number     Number       Type             X           Y           Z
 ---------------------------------------------------------------------
      1          6           0       -0.355307    1.840778   -0.156785
      2          6           0       -1.684751    1.691350    0.091593
      3          6           0       -0.800133   -0.334030   -0.166578
      4          7           0        0.171095    0.571682   -0.320615
      5          1           0        0.250129    2.726859   -0.233901
      6          1           0       -2.457254    2.419604    0.266732
      7          1           0       -0.604192   -1.435577   -0.236865
      8          7           0       -1.938897    0.327591    0.080115
      9          6           0        1.590163    0.219746   -0.548120
     10          6           0        2.355166    0.114917    0.764128
     11          1           0        2.001979    0.983084   -1.210674
     12          1           0        1.583191   -0.750399   -1.048331
     13          1           0        3.402655   -0.108683    0.551440
     14          1           0        2.309443    1.045044    1.337363
     15          1           0        1.953431   -0.707569    1.358409
     16          6           0       -3.234310   -0.315791    0.292934
     17          1           0       -3.625460   -0.043257    1.273424
     18          1           0       -3.934157   -0.008338   -0.484643
     19          1           0       -3.089671   -1.393274    0.246161
     20         17           0        0.499841   -3.083503   -0.245276
 ---------------------------------------------------------------------
                    Distance matrix (angstroms):
                    1          2          3          4          5
     1  C    0.000000
     2  C    1.360676   0.000000
     3  C    2.219855   2.225166   0.000000
     4  N    1.383671   2.206294   1.336908   0.000000
     5  H    1.075937   2.218555   3.236762   2.158369   0.000000
     6  H    2.220943   1.076007   3.242886   3.266192   2.770373
     7  H    3.286770   3.324630   1.121044   2.153409   4.249206
     8  N    2.203092   1.387285   1.339919   2.161534   3.262964
     9  C    2.562370   3.646904   2.483094   1.479652   2.860077
    10  C    3.342655   4.388436   3.320192   2.481022   3.499926
    11  H    2.720867   3.973602   3.267530   2.076919   2.657784
    12  H    3.356609   4.235682   2.575088   2.066756   3.812043
    13  H    4.292349   5.416020   4.269632   3.415606   4.312248
    14  H    3.156987   4.233585   3.719294   2.746908   3.088389
    15  H    3.757680   4.538282   3.169737   2.762667   4.151143
    16  C    3.625148   2.543676   2.477237   3.572231   4.655813
    17  H    4.035962   2.858661   3.184436   4.163285   4.996576
    18  H    4.041645   2.877641   3.166915   4.149268   5.005241
    19  H    4.254199   3.393022   2.556235   3.849011   5.325432
    20  Cl   4.998766   5.261667   3.042323   3.670712   5.815738
                    6          7          8          9         10
     6  H    0.000000
     7  H    4.306956   0.000000
     8  N    2.163340   2.233982   0.000000
     9  C    4.678135   2.766255   3.586164   0.000000
    10  C    5.358953   3.487666   4.353398   1.522568   0.000000
    11  H    4.912339   3.686509   4.198370   1.091446   2.185932
    12  H    5.301274   2.431582   3.852344   1.091531   2.151679
    13  H    6.388415   4.293821   5.380024   2.145234   1.092002
    14  H    5.075143   4.137747   4.488185   2.180259   1.093539
    15  H    5.515897   3.101020   4.225613   2.150984   1.091350
    16  C    2.843746   2.907254   1.461960   4.926430   5.625813
    17  H    2.905825   3.653435   2.099050   5.530815   6.004356
    18  H    2.939509   3.631401   2.100682   5.529391   6.413283
    19  H    3.865025   2.532333   2.076832   5.013339   5.673551
    20  Cl   6.268234   1.983588   4.205816   3.491701   3.832887
                   11         12         13         14         15
    11  H    0.000000
    12  H    1.790726   0.000000
    13  H    2.501778   2.506295   0.000000
    14  H    2.567268   3.072881   1.773098   0.000000
    15  H    3.075850   2.435428   1.763552   1.788531   0.000000
    16  C    5.600592   5.019581   6.645226   5.803095   5.310498
    17  H    6.236360   5.746359   7.065405   6.034200   5.618946
    18  H    6.061992   5.595492   7.410287   6.588769   6.208821
    19  H    5.804683   4.891282   6.625230   6.023833   5.209622
    20  Cl   4.441345   2.694795   4.232097   4.777480   3.213999
                   16         17         18         19         20
    16  C    0.000000
    17  H    1.090245   0.000000
    18  H    1.090385   1.785305   0.000000
    19  H    1.088153   1.779012   1.779123   0.000000
    20  Cl   4.679079   5.344872   5.401322   3.997872   0.000000
 Stoichiometry    C6H11ClN2
 Framework group  C1[X(C6H11ClN2)]
 Deg. of freedom    54
 Full point group                 C1      NOp   1
 Largest Abelian subgroup         C1      NOp   1
 Largest concise Abelian subgroup C1      NOp   1
                         Standard orientation:                         
 ---------------------------------------------------------------------
 Center     Atomic      Atomic             Coordinates (Angstroms)
 Number     Number       Type             X           Y           Z
 ---------------------------------------------------------------------
      1          6           0       -1.477206    1.554590   -0.226145
      2          6           0       -2.399508    0.583235    0.013160
      3          6           0       -0.402448   -0.385893   -0.141447
      4          7           0       -0.246962    0.929138   -0.325408
      5          1           0       -1.589772    2.618899   -0.336678
      6          1           0       -3.465906    0.638375    0.145620
      7          1           0        0.464388   -1.096549   -0.158842
      8          7           0       -1.706523   -0.617607    0.061233
      9          6           0        1.068164    1.578767   -0.519821
     10          6           0        1.666397    2.032420    0.804765
     11          1           0        0.910938    2.408055   -1.211785
     12          1           0        1.712223    0.824197   -0.975071
     13          1           0        2.615402    2.538195    0.614895
     14          1           0        1.005473    2.724325    1.334173
     15          1           0        1.872335    1.162933    1.431364
     16          6           0       -2.280850   -1.942757    0.288067
     17          1           0       -2.792898   -1.963630    1.250360
     18          1           0       -2.981893   -2.185688   -0.510971
     19          1           0       -1.469516   -2.667874    0.292453
     20         17           0        2.373313   -1.629655   -0.078692
 ---------------------------------------------------------------------
 Rotational constants (GHZ):      1.5079932      0.9688601      0.6238894
 Standard basis: 6-311+G(d,p) (5D, 7F)
 There are   281 symmetry adapted cartesian basis functions of A   symmetry.
 There are   272 symmetry adapted basis functions of A   symmetry.
   272 basis functions,   429 primitive gaussians,   281 cartesian basis functions
    39 alpha electrons       39 beta electrons
       nuclear repulsion energy       518.3137637176 Hartrees.
 NAtoms=   20 NActive=   20 NUniq=   20 SFac= 1.00D+00 NAtFMM=   60 NAOKFM=F Big=F
 Integral buffers will be    131072 words long.
 Raffenetti 2 integral format.
 Two-electron integral symmetry is turned on.
 Nuclear repulsion after empirical dispersion term =      518.2814236785 Hartrees.
 One-electron integrals computed using PRISM.
 NBasis=   272 RedAO= T EigKep=  1.88D-05  NBF=   272
 NBsUse=   272 1.00D-06 EigRej= -1.00D+00 NBFU=   272
 Initial guess from the checkpoint file:  "CJS1_emim-cl_FE_6-311+g-d-p-_gd3bj_opt-modredundant_unfrz.chk"
 B after Tr=     0.000000    0.000000    0.000000
         Rot=    0.999976    0.000046   -0.000650    0.006847 Ang=   0.79 deg.
 ExpMin= 4.38D-02 ExpMax= 1.06D+05 ExpMxC= 3.62D+03 IAcc=2 IRadAn=         4 AccDes= 0.00D+00
 Harris functional with IExCor=  402 and IRadAn=       4 diagonalized for initial guess.
 HarFok:  IExCor=  402 AccDes= 0.00D+00 IRadAn=         4 IDoV= 1 UseB2=F ITyADJ=14
 ICtDFT=  3500011 ScaDFX=  1.000000  1.000000  1.000000  1.000000
 FoFCou: FMM=F IPFlag=           0 FMFlag=      100000 FMFlg1=           0
         NFxFlg=           0 DoJE=T BraDBF=F KetDBF=T FulRan=T
         wScrn=  0.000000 ICntrl=     500 IOpCl=  0 I1Cent=   200000004 NGrid=           0
         NMat0=    1 NMatS0=      1 NMatT0=    0 NMatD0=    1 NMtDS0=    0 NMtDT0=    0
 Petite list used in FoFCou.
 Keep R1 ints in memory in canonical form, NReq=700735283.
 Requested convergence on RMS density matrix=1.00D-09 within 128 cycles.
 Requested convergence on MAX density matrix=1.00D-07.
 Requested convergence on             energy=1.00D-07.
 No special actions if energy rises.
 SCF Done:  E(RB3LYP) =  -805.117108300     A.U. after   13 cycles
            NFock= 13  Conv=0.38D-09     -V/T= 2.0033
 Calling FoFJK, ICntrl=      2127 FMM=F ISym2X=0 I1Cent= 0 IOpClX= 0 NMat=1 NMatS=1 NMatT=0.
 ***** Axes restored to original set *****
 -------------------------------------------------------------------
 Center     Atomic                   Forces (Hartrees/Bohr)
 Number     Number              X              Y              Z
 -------------------------------------------------------------------
      1        6           0.000133113    0.000103733    0.000091459
      2        6           0.000126763   -0.000017600    0.000046634
[...]
    20  Cl   5.007104   5.267052   3.050439   3.681013   5.824838
                    6          7          8          9         10
     6  H    0.000000
     7  H    4.305461   0.000000
     8  N    2.163359   2.232409   0.000000
     9  C    4.676492   2.769596   3.586358   0.000000
    10  C    5.354062   3.463255   4.342999   1.522752   0.000000
    11  H    4.908153   3.700203   4.200641   1.091516   2.186294
    12  H    5.305976   2.458468   3.864255   1.090828   2.153173
    13  H    6.382661   4.278242   5.372488   2.145411   1.091988
    14  H    5.064711   4.104736   4.469710   2.180240   1.093562
    15  H    5.514219   3.059951   4.213114   2.149554   1.091282
    16  C    2.844334   2.904943   1.462073   4.926967   5.610130
    17  H    2.890396   3.655394   2.098450   5.532527   5.992300
    18  H    2.956703   3.624857   2.101462   5.528502   6.399835
    19  H    3.864959   2.530075   2.076932   5.014261   5.648484
    20  Cl   6.272516   1.989076   4.209942   3.506877   3.812919
                   11         12         13         14         15
    11  H    0.000000
    12  H    1.786183   0.000000
    13  H    2.501489   2.506604   0.000000
    14  H    2.568071   3.073751   1.773115   0.000000
    15  H    3.074916   2.437018   1.763984   1.789517   0.000000
    16  C    5.605566   5.035057   6.633671   5.776874   5.289717
    17  H    6.236243   5.767325   7.056596   6.006685   5.609311
    18  H    6.069098   5.601767   7.400018   6.570770   6.187040
    19  H    5.814351   4.912192   6.606654   5.985779   5.173114
    20  Cl   4.469217   2.737299   4.221328   4.749360   3.167253
                   16         17         18         19         20
    16  C    0.000000
    17  H    1.090177   0.000000
    18  H    1.090445   1.785269   0.000000
    19  H    1.088170   1.778413   1.779791   0.000000
    20  Cl   4.678756   5.351677   5.393762   3.994265   0.000000
 Stoichiometry    C6H11ClN2
 Framework group  C1[X(C6H11ClN2)]
 Deg. of freedom    54
 Full point group                 C1      NOp   1
 Largest Abelian subgroup         C1      NOp   1
 Largest concise Abelian subgroup C1      NOp   1
                         Standard orientation:                         
 ---------------------------------------------------------------------
 Center     Atomic      Atomic             Coordinates (Angstroms)
 Number     Number       Type             X           Y           Z
 ---------------------------------------------------------------------
      1          6           0       -1.491955    1.547737   -0.217408
      2          6           0       -2.404460    0.567670    0.023748
      3          6           0       -0.402468   -0.385548   -0.160241
      4          7           0       -0.258030    0.932257   -0.332625
      5          1           0       -1.613598    2.611886   -0.319768
      6          1           0       -3.469984    0.613801    0.166197
      7          1           0        0.472384   -1.086424   -0.156234
      8          7           0       -1.702054   -0.628234    0.057151
      9          6           0        1.049881    1.597592   -0.521221
     10          6           0        1.655344    2.021803    0.810032
     11          1           0        0.877990    2.443373   -1.189439
     12          1           0        1.698461    0.867309   -1.006955
     13          1           0        2.596428    2.544081    0.625576
     14          1           0        0.991166    2.690890    1.364170
     15          1           0        1.876962    1.136616    1.408551
     16          6           0       -2.262920   -1.958918    0.285987
     17          1           0       -2.784345   -1.979350    1.243163
     18          1           0       -2.952984   -2.215726   -0.518334
     19          1           0       -1.442921   -2.674018    0.304669
     20         17           0        2.388853   -1.613095   -0.077568
 ---------------------------------------------------------------------
 Rotational constants (GHZ):      1.5109461      0.9668069      0.6238712

 **********************************************************************

            Population analysis using the SCF density.

 **********************************************************************

 Orbital symmetries:
       Occupied  (A) (A) (A) (A) (A) (A) (A) (A) (A) (A) (A) (A)
                 (A) (A) (A) (A) (A) (A) (A) (A) (A) (A) (A) (A)
                 (A) (A) (A) (A) (A) (A) (A) (A) (A) (A) (A) (A)
                 (A) (A) (A)
       Virtual   (A) (A) (A) (A) (A) (A) (A) (A) (A) (A) (A) (A)
                 (A) (A) (A) (A) (A) (A) (A) (A) (A) (A) (A) (A)
                 (A) (A) (A) (A) (A) (A) (A) (A) (A) (A) (A) (A)
                 (A) (A) (A) (A) (A) (A) (A) (A) (A) (A) (A) (A)
                 (A) (A) (A) (A) (A) (A) (A) (A) (A) (A) (A) (A)
                 (A) (A) (A) (A) (A) (A) (A) (A) (A) (A) (A) (A)
                 (A) (A) (A) (A) (A) (A) (A) (A) (A) (A) (A) (A)
                 (A) (A) (A) (A) (A) (A) (A) (A) (A) (A) (A) (A)
                 (A) (A) (A) (A) (A) (A) (A) (A) (A) (A) (A) (A)
                 (A) (A) (A) (A) (A) (A) (A) (A) (A) (A) (A) (A)
                 (A) (A) (A) (A) (A) (A) (A) (A) (A) (A) (A) (A)
                 (A) (A) (A) (A) (A) (A) (A) (A) (A) (A) (A) (A)
                 (A) (A) (A) (A) (A) (A) (A) (A) (A) (A) (A) (A)
                 (A) (A) (A) (A) (A) (A) (A) (A) (A) (A) (A) (A)
                 (A) (A) (A) (A) (A) (A) (A) (A) (A) (A) (A) (A)
                 (A) (A) (A) (A) (A) (A) (A) (A) (A) (A) (A) (A)
                 (A) (A) (A) (A) (A) (A) (A) (A) (A) (A) (A) (A)
                 (A) (A) (A) (A) (A) (A) (A) (A) (A) (A) (A) (A)
                 (A) (A) (A) (A) (A) (A) (A) (A) (A) (A) (A) (A)
                 (A) (A) (A) (A) (A)
 The electronic state is 1-A.
 Alpha  occ. eigenvalues -- -101.39367 -14.43630 -14.42653 -10.27757 -10.26196
 Alpha  occ. eigenvalues --  -10.26098 -10.25683 -10.23627 -10.17707  -9.30767
 Alpha  occ. eigenvalues --   -7.06624  -7.06571  -7.06559  -1.10209  -0.98508
 Alpha  occ. eigenvalues --   -0.83927  -0.80220  -0.76366  -0.68846  -0.66754
 Alpha  occ. eigenvalues --   -0.65848  -0.62962  -0.58311  -0.53453  -0.51922
 Alpha  occ. eigenvalues --   -0.50239  -0.49812  -0.47884  -0.47213  -0.45973
 Alpha  occ. eigenvalues --   -0.44882  -0.41681  -0.39534  -0.37569  -0.33762
 Alpha  occ. eigenvalues --   -0.30149  -0.20012  -0.19667  -0.19495
 Alpha virt. eigenvalues --   -0.04402  -0.03507  -0.02393  -0.01006   0.00327
 Alpha virt. eigenvalues --    0.01636   0.01895   0.02460   0.03455   0.03755
 Alpha virt. eigenvalues --    0.04786   0.05780   0.06598   0.07084   0.07806
 Alpha virt. eigenvalues --    0.08420   0.08798   0.09112   0.10321   0.10864
 Alpha virt. eigenvalues --    0.11514   0.12332   0.12760   0.13043   0.14007
 Alpha virt. eigenvalues --    0.14303   0.14818   0.15278   0.15801   0.16248
 Alpha virt. eigenvalues --    0.16454   0.16803   0.17454   0.17757   0.18805
 Alpha virt. eigenvalues --    0.19212   0.20126   0.20829   0.21033   0.21879
 Alpha virt. eigenvalues --    0.22215   0.22864   0.23798   0.24745   0.25120
 Alpha virt. eigenvalues --    0.25756   0.26564   0.27429   0.27564   0.28093
 Alpha virt. eigenvalues --    0.29733   0.31384   0.34656   0.35980   0.37670
 Alpha virt. eigenvalues --    0.38234   0.39783   0.40416   0.42369   0.42982
 Alpha virt. eigenvalues --    0.44641   0.47755   0.49168   0.49819   0.52339
 Alpha virt. eigenvalues --    0.53104   0.53759   0.54705   0.55524   0.56667
 Alpha virt. eigenvalues --    0.57123   0.57241   0.58921   0.60355   0.61052
 Alpha virt. eigenvalues --    0.62326   0.62984   0.63818   0.65848   0.66086
 Alpha virt. eigenvalues --    0.67592   0.68248   0.68561   0.70545   0.70918
 Alpha virt. eigenvalues --    0.72484   0.74031   0.75657   0.76645   0.79835
 Alpha virt. eigenvalues --    0.81883   0.83642   0.87221   0.90619   0.92060
 Alpha virt. eigenvalues --    0.92941   0.93605   0.94298   0.99320   1.01035
 Alpha virt. eigenvalues --    1.01235   1.02239   1.02451   1.03513   1.03934
 Alpha virt. eigenvalues --    1.04716   1.06185   1.09632   1.12215   1.12704
 Alpha virt. eigenvalues --    1.19451   1.23118   1.25110   1.28416   1.30271
 Alpha virt. eigenvalues --    1.31422   1.38017   1.38258   1.40607   1.41356
 Alpha virt. eigenvalues --    1.44461   1.46156   1.49477   1.50350   1.51221
 Alpha virt. eigenvalues --    1.53363   1.53952   1.56298   1.57253   1.57585
 Alpha virt. eigenvalues --    1.59349   1.59681   1.61607   1.63490   1.65944
 Alpha virt. eigenvalues --    1.66945   1.68700   1.69783   1.71084   1.73794
 Alpha virt. eigenvalues --    1.76680   1.77646   1.78550   1.80249   1.82928
 Alpha virt. eigenvalues --    1.84828   1.88976   1.93440   1.97416   1.99990
 Alpha virt. eigenvalues --    2.01632   2.05433   2.07631   2.08587   2.09841
 Alpha virt. eigenvalues --    2.14800   2.17757   2.17844   2.19563   2.26090
 Alpha virt. eigenvalues --    2.27675   2.30253   2.36648   2.38186   2.39219
 Alpha virt. eigenvalues --    2.40075   2.42674   2.43721   2.44237   2.46753
 Alpha virt. eigenvalues --    2.47723   2.48122   2.49321   2.51115   2.52826
 Alpha virt. eigenvalues --    2.56027   2.56896   2.57840   2.59233   2.60930
 Alpha virt. eigenvalues --    2.62486   2.62861   2.64516   2.65684   2.69271
 Alpha virt. eigenvalues --    2.71449   2.73024   2.74920   2.77147   2.80358
 Alpha virt. eigenvalues --    2.84002   2.85589   2.88701   2.91937   2.94489
 Alpha virt. eigenvalues --    2.95272   2.96158   3.09694   3.18199   3.26436
 Alpha virt. eigenvalues --    3.35835   3.54550   3.56253   3.61855   3.65410
 Alpha virt. eigenvalues --    3.69635   3.71826   3.76822   3.79281   3.81989
 Alpha virt. eigenvalues --    3.84124   3.87038   3.88548   3.89235   4.07156
 Alpha virt. eigenvalues --    4.21141   4.68861   4.90137   4.92082   5.23109
 Alpha virt. eigenvalues --    9.85103  23.70920  23.83745  23.86335  23.88379
 Alpha virt. eigenvalues --   23.96074  24.13999  25.95982  26.03527  26.19461
 Alpha virt. eigenvalues --   35.42492  35.57424 215.83777
          Condensed to atoms (all electrons):
               1          2          3          4          5          6
     1  C    6.017227  -0.484396   0.026588   0.049384   0.469214  -0.063057
     2  C   -0.484396   6.382776  -0.136083   0.240044  -0.073387   0.456539
     3  C    0.026588  -0.136083   5.659906   0.517222   0.012811   0.017741
     4  N    0.049384   0.240044   0.517222   6.748802  -0.060670   0.020276
     5  H    0.469214  -0.073387   0.012811  -0.060670   0.487084  -0.002305
     6  H   -0.063057   0.456539   0.017741   0.020276  -0.002305   0.489028
     7  H    0.024067  -0.062771   0.251140  -0.042834   0.000182   0.000162
     8  N    0.040038   0.159696   0.268892  -0.278693   0.025901  -0.065964
     9  C    0.257517  -0.475953  -0.205258  -0.048194  -0.020957   0.000086
    10  C   -0.126835   0.159956   0.011787   0.018794   0.007572  -0.000303
    11  H   -0.020940   0.033987   0.025664  -0.030402  -0.000165   0.000024
    12  H    0.002310   0.007200   0.016106  -0.044808   0.000124   0.000017
    13  H   -0.000241   0.002292   0.001782   0.022913  -0.000057  -0.000001
    14  H    0.017853  -0.017786  -0.010547  -0.029302  -0.000118   0.000005
    15  H   -0.007932   0.002818   0.010897  -0.007047  -0.000040   0.000006
    16  C   -0.066646  -0.095211  -0.269559  -0.048875   0.001045  -0.002849
    17  H    0.021786  -0.010146  -0.002855  -0.004717   0.000001  -0.000230
    18  H   -0.003126   0.007753  -0.016151  -0.000559   0.000003  -0.000344
    19  H   -0.001967  -0.005428   0.034787   0.009617   0.000018  -0.000056
    20  Cl   0.022100  -0.031739  -0.027943  -0.021528   0.000054   0.000096
               7          8          9         10         11         12
     1  C    0.024067   0.040038   0.257517  -0.126835  -0.020940   0.002310
     2  C   -0.062771   0.159696  -0.475953   0.159956   0.033987   0.007200
     3  C    0.251140   0.268892  -0.205258   0.011787   0.025664   0.016106
     4  N   -0.042834  -0.278693  -0.048194   0.018794  -0.030402  -0.044808
     5  H    0.000182   0.025901  -0.020957   0.007572  -0.000165   0.000124
     6  H    0.000162  -0.065964   0.000086  -0.000303   0.000024   0.000017
     7  H    0.516940  -0.038637  -0.013039   0.008993   0.000591  -0.003341
     8  N   -0.038637   6.752787  -0.075912   0.007658  -0.005713   0.011777
     9  C   -0.013039  -0.075912   6.639630  -0.413069   0.330300   0.383352
    10  C    0.008993   0.007658  -0.413069   5.572918  -0.015616  -0.021104
    11  H    0.000591  -0.005713   0.330300  -0.015616   0.565128  -0.022514
    12  H   -0.003341   0.011777   0.383352  -0.021104  -0.022514   0.432335
    13  H    0.000096  -0.000669  -0.088829   0.441203  -0.002715  -0.003341
    14  H   -0.000417   0.003408   0.058660   0.345625  -0.009660   0.005384
    15  H    0.000783  -0.001907  -0.031271   0.420750   0.006226  -0.008561
    16  C    0.022290   0.328578  -0.083243   0.013166   0.000956   0.003441
    17  H   -0.000206  -0.045342   0.003276  -0.000695  -0.000006  -0.000011
    18  H   -0.000133  -0.038957  -0.000964   0.000144  -0.000004  -0.000002
    19  H    0.001080  -0.047508   0.003096  -0.000363   0.000000   0.000000
    20  Cl   0.172128   0.007219  -0.090901  -0.009240   0.002168   0.021505
              13         14         15         16         17         18
     1  C   -0.000241   0.017853  -0.007932  -0.066646   0.021786  -0.003126
     2  C    0.002292  -0.017786   0.002818  -0.095211  -0.010146   0.007753
     3  C    0.001782  -0.010547   0.010897  -0.269559  -0.002855  -0.016151
     4  N    0.022913  -0.029302  -0.007047  -0.048875  -0.004717  -0.000559
     5  H   -0.000057  -0.000118  -0.000040   0.001045   0.000001   0.000003
     6  H   -0.000001   0.000005   0.000006  -0.002849  -0.000230  -0.000344
     7  H    0.000096  -0.000417   0.000783   0.022290  -0.000206  -0.000133
     8  N   -0.000669   0.003408  -0.001907   0.328578  -0.045342  -0.038957
     9  C   -0.088829   0.058660  -0.031271  -0.083243   0.003276  -0.000964
    10  C    0.441203   0.345625   0.420750   0.013166  -0.000695   0.000144
    11  H   -0.002715  -0.009660   0.006226   0.000956  -0.000006  -0.000004
    12  H   -0.003341   0.005384  -0.008561   0.003441  -0.000011  -0.000002
    13  H    0.514720  -0.028447  -0.016361   0.000014   0.000000   0.000000
    14  H   -0.028447   0.573304  -0.031062  -0.000205   0.000001   0.000001
    15  H   -0.016361  -0.031062   0.456804   0.000009  -0.000002  -0.000001
    16  C    0.000014  -0.000205   0.000009   5.165596   0.399369   0.417261
    17  H    0.000000   0.000001  -0.000002   0.399369   0.521614  -0.037046
    18  H    0.000000   0.000001  -0.000001   0.417261  -0.037046   0.512193
    19  H    0.000000   0.000001   0.000003   0.389216  -0.018711  -0.019734
    20  Cl  -0.000287   0.000036   0.003527   0.020113  -0.000058  -0.000174
              19         20
     1  C   -0.001967   0.022100
     2  C   -0.005428  -0.031739
     3  C    0.034787  -0.027943
     4  N    0.009617  -0.021528
     5  H    0.000018   0.000054
     6  H   -0.000056   0.000096
     7  H    0.001080   0.172128
     8  N   -0.047508   0.007219
     9  C    0.003096  -0.090901
    10  C   -0.000363  -0.009240
    11  H    0.000000   0.002168
    12  H    0.000000   0.021505
    13  H    0.000000  -0.000287
    14  H    0.000001   0.000036
    15  H    0.000003   0.003527
    16  C    0.389216   0.020113
    17  H   -0.018711  -0.000058
    18  H   -0.019734  -0.000174
    19  H    0.451442   0.000105
    20  Cl   0.000105  17.624912
 Mulliken charges:
               1
     1  C   -0.172944
     2  C   -0.060160
     3  C   -0.186927
     4  N   -0.009423
     5  H    0.153690
     6  H    0.151130
     7  H    0.162925
     8  N   -0.006654
     9  C   -0.128327
    10  C   -0.421344
    11  H    0.142689
    12  H    0.220130
    13  H    0.157928
    14  H    0.123267
    15  H    0.202360
    16  C   -0.194463
    17  H    0.173979
    18  H    0.179840
    19  H    0.204401
    20  Cl  -0.692094
 Sum of Mulliken charges =   0.00000
 Mulliken charges with hydrogens summed into heavy atoms:
               1
     1  C   -0.019254
     2  C    0.090969
     3  C   -0.024003
     4  N   -0.009423
     8  N   -0.006654
     9  C    0.234492
    10  C    0.062211
    16  C    0.363756
    20  Cl  -0.692094
 Electronic spatial extent (au):  <R**2>=           1804.5845
 Charge=              0.0000 electrons
 Dipole moment (field-independent basis, Debye):
    X=            -11.0595    Y=              5.7525    Z=              0.1216  Tot=             12.4667
 Quadrupole moment (field-independent basis, Debye-Ang):
   XX=            -70.3952   YY=            -61.8218   ZZ=            -65.2169
   XY=             19.3627   XZ=             -0.7949   YZ=             -2.4186
 Traceless Quadrupole moment (field-independent basis, Debye-Ang):
   XX=             -4.5839   YY=              3.9895   ZZ=              0.5944
   XY=             19.3627   XZ=             -0.7949   YZ=             -2.4186
 Octapole moment (field-independent basis, Debye-Ang**2):
  XXX=            -93.9067  YYY=             25.2225  ZZZ=              0.9175  XYY=            -40.5225
  XXY=             33.4801  XXZ=              5.0908  XZZ=             -3.3897  YZZ=              1.1902
  YYZ=             -1.1381  XYZ=              0.1403
 Hexadecapole moment (field-independent basis, Debye-Ang**3):
 XXXX=          -1407.8145 YYYY=           -920.1461 ZZZZ=           -154.2651 XXXY=            129.6782
 XXXZ=             -7.4041 YYYX=             75.5813 YYYZ=            -17.0384 ZZZX=             -3.6835
 ZZZY=             -5.3698 XXYY=           -407.3586 XXZZ=           -264.6581 YYZZ=           -185.4102
 XXYZ=             -6.5773 YYXZ=              0.1176 ZZXY=             17.4685
 N-N= 5.181962480097D+02 E-N=-2.930927615420D+03  KE= 8.024502923779D+02
 1\1\GINC-CX1-1-11-4\FOpt\RB3LYP\6-311+G(d,p)\C6H11Cl1N2\CJS14\19-Apr-2
 015\0\\# opt=modredundant b3lyp/6-311+g(d,p) geom=checkpoint integral=
 grid=ultrafine scf=conver=9 empiricaldispersion=gd3bj\\Emim+ (optimise
 d with b3lyp+gd3bj / aug-cc-pvtz) and Cl- in the front-ethyl position 
 created on; Thu Apr 16 19:11:58 BST 2015, from; CJS1_emim-cl_FE_init.c
 om created on; Sun Apr 19 10:11:25 BST 2015, from; CJS1_emim-cl_FE_6-3
 11+g-d-p-_gd3bj_opt-modredundant_difrz_err.com\\0,1\C,-0.355578329,1.8
 443306824,-0.1633009732\C,-1.6838649555,1.6931010716,0.0899527787\C,-0
 .799916843,-0.3305387254,-0.1820100338\N,0.1708819228,0.5760222028,-0.
 3332895703\H,0.2489602169,2.7310529228,-0.2403962301\H,-2.4561358414,2
 .4203615494,0.2700997362\H,-0.5989470894,-1.4326327967,-0.2221159117\N
 ,-1.9372637547,0.3291901306,0.0754352255\C,1.5920120551,0.2287720394,-
 0.5539211709\C,2.3448566518,0.1024219285,0.7636654612\H,2.0079507061,1
 .0048466848,-1.1989871998\H,1.5963979869,-0.7289292021,-1.0761224186\H
 ,3.3953130215,-0.1127330313,0.5570560239\H,2.2894763359,1.0215767003,1
 .3535513662\H,1.9396993031,-0.7333421659,1.336590022\C,-3.2301369788,-
 0.3165013923,0.2972907632\H,-3.6245068199,-0.0264259588,1.2713622023\H
 ,-3.9301161469,-0.0281964075,-0.4875536328\H,-3.079708978,-1.393960777
 ,0.273466525\Cl,0.5035852965,-3.0881820758,-0.220264003\\Version=ES64L
 -G09RevD.01\State=1-A\HF=-805.1171749\RMSD=5.876e-10\RMSF=5.652e-06\Di
 pole=-1.8002935,4.5559442,0.2430926\Quadrupole=13.5411928,-13.9298847,
 0.3886919,5.2225149,-1.6034863,-1.5807422\PG=C01 [X(C6H11Cl1N2)]\\@


 HE THAT IS UNAWARE OF HIS IGNORANCE WILL BE MISLED BY HIS KNOWLEDGE.

                                        -- WHATLEY
 Job cpu time:       0 days  2 hours  7 minutes 24.4 seconds.
 File lengths (MBytes):  RWF=     35 Int=      0 D2E=      0 Chk=      6 Scr=      1
 Normal termination of Gaussian 09 at Sun Apr 19 10:36:31 2015.
