 Entering Gaussian System, Link 0=g09
 Input=/work/cjs14/CJS1_emim-cl_F_6-311+g-d-p-_gd3bj_opt-modredundant_unfrz.com
 Output=/work/cjs14/CJS1_emim-cl_F_6-311+g-d-p-_gd3bj_opt-modredundant_unfrz.log
 Initial command:
 /apps/gaussian/g09_d01/g09/l1.exe /tmp/pbs.9401330.cx1b/Gau-4648.inp -scrdir=/tmp/pbs.9401330.cx1b/
 Entering Link 1 = /apps/gaussian/g09_d01/g09/l1.exe PID=      4649.
  
 Copyright (c) 1988,1990,1992,1993,1995,1998,2003,2009,2013,
            Gaussian, Inc.  All Rights Reserved.
  
 This is part of the Gaussian(R) 09 program.  It is based on
 the Gaussian(R) 03 system (copyright 2003, Gaussian, Inc.),
 the Gaussian(R) 98 system (copyright 1998, Gaussian, Inc.),
 the Gaussian(R) 94 system (copyright 1995, Gaussian, Inc.),
 the Gaussian 92(TM) system (copyright 1992, Gaussian, Inc.),
 the Gaussian 90(TM) system (copyright 1990, Gaussian, Inc.),
 the Gaussian 88(TM) system (copyright 1988, Gaussian, Inc.),
 the Gaussian 86(TM) system (copyright 1986, Carnegie Mellon
 University), and the Gaussian 82(TM) system (copyright 1983,
 Carnegie Mellon University). Gaussian is a federally registered
 trademark of Gaussian, Inc.
  
 This software contains proprietary and confidential information,
 including trade secrets, belonging to Gaussian, Inc.
  
 This software is provided under written license and may be
 used, copied, transmitted, or stored only in accord with that
 written license.
  
 The following legend is applicable only to US Government
 contracts under FAR:
  
                    RESTRICTED RIGHTS LEGEND
  
 Use, reproduction and disclosure by the US Government is
 subject to restrictions as set forth in subparagraphs (a)
 and (c) of the Commercial Computer Software - Restricted
 Rights clause in FAR 52.227-19.
  
 Gaussian, Inc.
 340 Quinnipiac St., Bldg. 40, Wallingford CT 06492
  
  
 ---------------------------------------------------------------
 Warning -- This program may not be used in any manner that
 competes with the business of Gaussian, Inc. or will provide
 assistance to any competitor of Gaussian, Inc.  The licensee
 of this program is prohibited from giving any competitor of
 Gaussian, Inc. access to this program.  By using this program,
 the user acknowledges that Gaussian, Inc. is engaged in the
 business of creating and licensing software in the field of
 computational chemistry and represents and warrants to the
 licensee that it is not a competitor of Gaussian, Inc. and that
 it will not use this program in any manner prohibited above.
 ---------------------------------------------------------------
  

 Cite this work as:
 Gaussian 09, Revision D.01,
 M. J. Frisch, G. W. Trucks, H. B. Schlegel, G. E. Scuseria, 
 M. A. Robb, J. R. Cheeseman, G. Scalmani, V. Barone, B. Mennucci, 
 G. A. Petersson, H. Nakatsuji, M. Caricato, X. Li, H. P. Hratchian, 
 A. F. Izmaylov, J. Bloino, G. Zheng, J. L. Sonnenberg, M. Hada, 
 M. Ehara, K. Toyota, R. Fukuda, J. Hasegawa, M. Ishida, T. Nakajima, 
 Y. Honda, O. Kitao, H. Nakai, T. Vreven, J. A. Montgomery, Jr., 
 J. E. Peralta, F. Ogliaro, M. Bearpark, J. J. Heyd, E. Brothers, 
 K. N. Kudin, V. N. Staroverov, T. Keith, R. Kobayashi, J. Normand, 
 K. Raghavachari, A. Rendell, J. C. Burant, S. S. Iyengar, J. Tomasi, 
 M. Cossi, N. Rega, J. M. Millam, M. Klene, J. E. Knox, J. B. Cross, 
 V. Bakken, C. Adamo, J. Jaramillo, R. Gomperts, R. E. Stratmann, 
 O. Yazyev, A. J. Austin, R. Cammi, C. Pomelli, J. W. Ochterski, 
 R. L. Martin, K. Morokuma, V. G. Zakrzewski, G. A. Voth, 
 P. Salvador, J. J. Dannenberg, S. Dapprich, A. D. Daniels, 
 O. Farkas, J. B. Foresman, J. V. Ortiz, J. Cioslowski, 
 and D. J. Fox, Gaussian, Inc., Wallingford CT, 2013.
 
 ******************************************
 Gaussian 09:  ES64L-G09RevD.01 24-Apr-2013
                17-Apr-2015 
 ******************************************
 %nprocshared=8
 Will use up to    8 processors via shared memory.
 %mem=15000MB
 %chk=CJS1_emim-cl_F_6-311+g-d-p-_gd3bj_opt-modredundant_unfrz.chk
 ----------------------------------------------------------------------
 # opt=modredundant b3lyp/6-311+g(d,p) geom=checkpoint integral=grid=ul
 trafine scf=conver=9 empiricaldispersion=gd3bj
 ----------------------------------------------------------------------
 1/14=-1,18=120,19=15,26=4,29=2,38=1/1,3;
 2/9=110,12=2,40=1/2;
 3/5=4,6=6,7=111,11=2,14=-4,16=1,25=1,30=1,71=1,74=-5,75=-5,124=41/1,2,3;
 4//1;
 5/5=2,6=9,38=5/2;
 6/7=2,8=2,9=2,10=2,28=1/1;
 7//1,2,3,16;
 1/14=-1,18=20,19=15,26=4/3(2);
 2/9=110/2;
 99//99;
 2/9=110/2;
 3/5=4,6=6,7=111,11=2,14=-2,16=1,25=1,30=1,71=1,74=-5,75=-5,124=41/1,2,3;
 4/5=5,16=3,69=1/1;
 5/5=2,6=9,38=5/2;
 7//1,2,3,16;
 1/14=-1,18=20,19=15,26=4/3(-5);
 2/9=110/2;
 6/7=2,8=2,9=2,10=2,19=2,28=1/1;
 99/9=1/99;
 ----------------------------------------------------------------------
 Emim+ (optimised with b3lyp+gd3bj / aug-cc-pvtz) and Cl- in the front 
 position created on; Thu Apr 16 19:11:59 BST 2015, from; CJS1_emim-cl_
 F_init.com created on; Fri Apr 17 20:54:17 BST 2015, from; CJS1_emim-c
 l_F_6-311+g-d-p-_gd3bj_opt-modredundant_difrz.com
 ----------------------------------------------------------------------
 Structure from the checkpoint file:  "CJS1_emim-cl_F_6-311+g-d-p-_gd3bj_opt-modredundant_unfrz.chk"
 Charge =  0 Multiplicity = 1
 Redundant internal coordinates found in file.
 C,0,-0.3289701187,1.8042702898,-0.2176474225
 C,0,-1.6569583338,1.6639396675,0.0435021047
 C,0,-0.7869896105,-0.3705124217,-0.1544666455
 N,0,0.1907387589,0.5248049725,-0.3426286953
 H,0,0.2788811403,2.6851337617,-0.3288710041
 H,0,-2.4262320654,2.4003510464,0.1971596679
 H,0,-0.7411161811,-1.4920266428,-0.1503024752
 N,0,-1.917460054,0.3041657644,0.0793087147
 C,0,1.6034600342,0.1654354242,-0.5444127364
 C,0,2.3502960328,0.0352581701,0.7784590511
 H,0,2.0429540333,0.9328919162,-1.1836792855
 H,0,1.612256471,-0.7766385686,-1.0926833799
 H,0,3.3928308268,-0.2275257096,0.5869808126
 H,0,2.3299335388,0.9727662983,1.3391668016
 H,0,1.9066908005,-0.7515767934,1.3913816567
 C,0,-3.2127298949,-0.3444797844,0.3246806557
 H,0,-3.6028074903,-0.0134124996,1.2870860697
 H,0,-3.9069087098,-0.0808140954,-0.4734823445
 H,0,-3.0400363899,-1.4243264381,0.3365746799
 Cl,0,-1.3272987782,-3.3673545575,0.1000837142
 Recover connectivity data from disk.
 The following ModRedundant input section has been read:
 D      20       3       4       1 A                                           
 

 GradGradGradGradGradGradGradGradGradGradGradGradGradGradGradGradGradGrad
 Berny optimization.
 Initialization pass.
                           ----------------------------
                           !    Initial Parameters    !
                           ! (Angstroms and Degrees)  !
 --------------------------                            --------------------------
 ! Name  Definition              Value          Derivative Info.                !
 --------------------------------------------------------------------------------
 ! R1    R(1,2)                  1.3607         estimate D2E/DX2                !
 ! R2    R(1,4)                  1.3866         estimate D2E/DX2                !
 ! R3    R(1,5)                  1.076          estimate D2E/DX2                !
 ! R4    R(2,6)                  1.076          estimate D2E/DX2                !
 ! R5    R(2,8)                  1.385          estimate D2E/DX2                !
 ! R6    R(3,4)                  1.339          estimate D2E/DX2                !
 ! R7    R(3,7)                  1.1225         estimate D2E/DX2                !
 ! R8    R(3,8)                  1.3371         estimate D2E/DX2                !
 ! R9    R(4,9)                  1.4716         estimate D2E/DX2                !
 ! R10   R(7,20)                 1.9807         estimate D2E/DX2                !
 ! R11   R(8,16)                 1.4692         estimate D2E/DX2                !
 ! R12   R(9,10)                 1.5247         estimate D2E/DX2                !
 ! R13   R(9,11)                 1.0912         estimate D2E/DX2                !
 ! R14   R(9,12)                 1.09           estimate D2E/DX2                !
 ! R15   R(10,13)                1.0921         estimate D2E/DX2                !
 ! R16   R(10,14)                1.0926         estimate D2E/DX2                !
 ! R17   R(10,15)                1.0916         estimate D2E/DX2                !
 ! R18   R(16,17)                1.0899         estimate D2E/DX2                !
 ! R19   R(16,18)                1.0902         estimate D2E/DX2                !
 ! R20   R(16,19)                1.0936         estimate D2E/DX2                !
 ! A1    A(2,1,4)              106.7342         estimate D2E/DX2                !
 ! A2    A(2,1,5)              130.9663         estimate D2E/DX2                !
 ! A3    A(4,1,5)              122.2984         estimate D2E/DX2                !
 ! A4    A(1,2,6)              130.89           estimate D2E/DX2                !
 ! A5    A(1,2,8)              106.8456         estimate D2E/DX2                !
 ! A6    A(6,2,8)              122.2626         estimate D2E/DX2                !
 ! A7    A(4,3,7)              129.6992         estimate D2E/DX2                !
 ! A8    A(4,3,8)              107.7301         estimate D2E/DX2                !
 ! A9    A(7,3,8)              122.5522         estimate D2E/DX2                !
 ! A10   A(1,4,3)              109.3067         estimate D2E/DX2                !
 ! A11   A(1,4,9)              126.6901         estimate D2E/DX2                !
 ! A12   A(3,4,9)              123.8452         estimate D2E/DX2                !
 ! A13   A(2,8,3)              109.3819         estimate D2E/DX2                !
 ! A14   A(2,8,16)             127.1275         estimate D2E/DX2                !
 ! A15   A(3,8,16)             123.49           estimate D2E/DX2                !
 ! A16   A(4,9,10)             111.8456         estimate D2E/DX2                !
 ! A17   A(4,9,11)             107.1702         estimate D2E/DX2                !
 ! A18   A(4,9,12)             106.7244         estimate D2E/DX2                !
 ! A19   A(10,9,11)            111.7799         estimate D2E/DX2                !
 ! A20   A(10,9,12)            111.018          estimate D2E/DX2                !
 ! A21   A(11,9,12)            108.0542         estimate D2E/DX2                !
 ! A22   A(9,10,13)            109.6351         estimate D2E/DX2                !
 ! A23   A(9,10,14)            111.2768         estimate D2E/DX2                !
 ! A24   A(9,10,15)            110.4662         estimate D2E/DX2                !
 ! A25   A(13,10,14)           108.3157         estimate D2E/DX2                !
 ! A26   A(13,10,15)           108.2374         estimate D2E/DX2                !
 ! A27   A(14,10,15)           108.831          estimate D2E/DX2                !
 ! A28   A(8,16,17)            109.2004         estimate D2E/DX2                !
 ! A29   A(8,16,18)            109.4094         estimate D2E/DX2                !
 ! A30   A(8,16,19)            107.369          estimate D2E/DX2                !
 ! A31   A(17,16,18)           110.1891         estimate D2E/DX2                !
 ! A32   A(17,16,19)           110.2933         estimate D2E/DX2                !
 ! A33   A(18,16,19)           110.3236         estimate D2E/DX2                !
 ! A34   L(3,7,20,12,-1)       200.8652         estimate D2E/DX2                !
 ! A35   L(3,7,20,12,-2)       180.5886         estimate D2E/DX2                !
 ! D1    D(4,1,2,6)           -179.2            estimate D2E/DX2                !
 ! D2    D(4,1,2,8)              0.3104         estimate D2E/DX2                !
 ! D3    D(5,1,2,6)              0.4106         estimate D2E/DX2                !
 ! D4    D(5,1,2,8)            179.921          estimate D2E/DX2                !
 ! D5    D(2,1,4,3)             -0.4185         estimate D2E/DX2                !
 ! D6    D(2,1,4,9)           -175.9628         estimate D2E/DX2                !
 ! D7    D(5,1,4,3)            179.9294         estimate D2E/DX2                !
 ! D8    D(5,1,4,9)              4.385          estimate D2E/DX2                !
 ! D9    D(1,2,8,3)             -0.1014         estimate D2E/DX2                !
 ! D10   D(1,2,8,16)          -179.8359         estimate D2E/DX2                !
 ! D11   D(6,2,8,3)            179.4609         estimate D2E/DX2                !
 ! D12   D(6,2,8,16)            -0.2736         estimate D2E/DX2                !
 ! D13   D(7,3,4,1)           -178.0802         estimate D2E/DX2                !
 ! D14   D(7,3,4,9)             -2.3818         estimate D2E/DX2                !
 ! D15   D(8,3,4,1)              0.3569         estimate D2E/DX2                !
 ! D16   D(8,3,4,9)            176.0553         estimate D2E/DX2                !
 ! D17   D(20,3,4,1)          -174.3361         estimate D2E/DX2                !
 ! D18   D(4,3,8,2)             -0.1587         estimate D2E/DX2                !
 ! D19   D(4,3,8,16)           179.5875         estimate D2E/DX2                !
 ! D20   D(7,3,8,2)            178.4146         estimate D2E/DX2                !
 ! D21   D(7,3,8,16)            -1.8391         estimate D2E/DX2                !
 ! D22   D(1,4,9,10)            87.0609         estimate D2E/DX2                !
 ! D23   D(1,4,9,11)           -35.777          estimate D2E/DX2                !
 ! D24   D(1,4,9,12)          -151.3425         estimate D2E/DX2                !
 ! D25   D(3,4,9,10)           -87.8746         estimate D2E/DX2                !
 ! D26   D(3,4,9,11)           149.2875         estimate D2E/DX2                !
 ! D27   D(3,4,9,12)            33.722          estimate D2E/DX2                !
 ! D28   D(2,8,16,17)          -57.3171         estimate D2E/DX2                !
 ! D29   D(2,8,16,18)           63.358          estimate D2E/DX2                !
 ! D30   D(2,8,16,19)         -176.903          estimate D2E/DX2                !
 ! D31   D(3,8,16,17)          122.9832         estimate D2E/DX2                !
 ! D32   D(3,8,16,18)         -116.3417         estimate D2E/DX2                !
 ! D33   D(3,8,16,19)            3.3973         estimate D2E/DX2                !
 ! D34   D(4,9,10,13)         -179.7732         estimate D2E/DX2                !
 ! D35   D(4,9,10,14)          -59.9719         estimate D2E/DX2                !
 ! D36   D(4,9,10,15)           61.0297         estimate D2E/DX2                !
 ! D37   D(11,9,10,13)         -59.5956         estimate D2E/DX2                !
 ! D38   D(11,9,10,14)          60.2058         estimate D2E/DX2                !
 ! D39   D(11,9,10,15)        -178.7927         estimate D2E/DX2                !
 ! D40   D(12,9,10,13)          61.1382         estimate D2E/DX2                !
 ! D41   D(12,9,10,14)        -179.0605         estimate D2E/DX2                !
 ! D42   D(12,9,10,15)         -58.0589         estimate D2E/DX2                !
 --------------------------------------------------------------------------------
 Trust Radius=3.00D-01 FncErr=1.00D-07 GrdErr=1.00D-06
 Number of steps in this run=    107 maximum allowed number of steps=    120.
 GradGradGradGradGradGradGradGradGradGradGradGradGradGradGradGradGradGrad

                          Input orientation:                          
 ---------------------------------------------------------------------
 Center     Atomic      Atomic             Coordinates (Angstroms)
 Number     Number       Type             X           Y           Z
 ---------------------------------------------------------------------
      1          6           0       -0.328970    1.804270   -0.217647
      2          6           0       -1.656958    1.663940    0.043502
      3          6           0       -0.786990   -0.370512   -0.154467
      4          7           0        0.190739    0.524805   -0.342629
      5          1           0        0.278881    2.685134   -0.328871
      6          1           0       -2.426232    2.400351    0.197160
      7          1           0       -0.741116   -1.492027   -0.150302
      8          7           0       -1.917460    0.304166    0.079309
      9          6           0        1.603460    0.165435   -0.544413
     10          6           0        2.350296    0.035258    0.778459
     11          1           0        2.042954    0.932892   -1.183679
     12          1           0        1.612256   -0.776639   -1.092683
     13          1           0        3.392831   -0.227526    0.586981
     14          1           0        2.329934    0.972766    1.339167
     15          1           0        1.906691   -0.751577    1.391382
     16          6           0       -3.212730   -0.344480    0.324681
     17          1           0       -3.602807   -0.013412    1.287086
     18          1           0       -3.906909   -0.080814   -0.473482
     19          1           0       -3.040036   -1.424326    0.336575
     20         17           0       -1.327299   -3.367355    0.100084
 ---------------------------------------------------------------------
                    Distance matrix (angstroms):
                    1          2          3          4          5
     1  C    0.000000
     2  C    1.360678   0.000000
     3  C    2.223388   2.221493   0.000000
     4  N    1.386632   2.204702   1.339011   0.000000
     5  H    1.075999   2.220129   3.240906   2.162170   0.000000
     6  H    2.219433   1.075962   3.238586   3.264595   2.770460
     7  H    3.322646   3.291876   1.122460   2.230012   4.303597
     8  N    2.204948   1.384965   1.337088   2.161299   3.264894
     9  C    2.554768   3.636136   2.480635   1.471613   2.854794
    10  C    3.361562   4.387579   3.298115   2.481971   3.541014
    11  H    2.705280   3.966076   3.281268   2.074754   2.629259
    12  H    3.345914   4.234986   2.607982   2.068103   3.787501
    13  H    4.315950   5.419721   4.247480   3.418124   4.361084
    14  H    3.191369   4.248738   3.708173   2.757764   3.149820
    15  H    3.757593   4.511219   3.129021   2.753259   4.173729
    16  C    3.636938   2.556019   2.472747   3.575550   4.668730
    17  H    4.035617   2.854179   3.183461   4.163729   4.996096
    18  H    4.052239   2.893737   3.149538   4.144226   5.019185
    19  H    4.252162   3.396496   2.535324   3.833841   5.324067
    20  Cl   5.276677   5.042400   3.055780   4.201112   6.276658
                    6          7          8          9         10
     6  H    0.000000
     7  H    4.255696   0.000000
     8  N    2.160262   2.159355   0.000000
     9  C    4.667247   2.898196   3.578429   0.000000
    10  C    5.361604   3.570998   4.332997   1.524697   0.000000
    11  H    4.902426   3.833946   4.204202   1.091241   2.179494
    12  H    5.297768   2.634051   3.873061   1.090037   2.169113
    13  H    6.396811   4.385438   5.360934   2.153211   1.092061
    14  H    5.095419   4.210115   4.480471   2.174263   1.092579
    15  H    5.489539   3.152132   4.178547   2.163368   1.091590
    16  C    2.858135   2.766107   1.469242   4.920470   5.594406
    17  H    2.898021   3.527274   2.097612   5.521920   5.974991
    18  H    2.966200   3.481122   2.100403   5.516324   6.382276
    19  H    3.876126   2.350886   2.077029   4.986536   5.601904
    20  Cl   5.872266   1.980696   3.718707   4.635227   5.055954
                   11         12         13         14         15
    11  H    0.000000
    12  H    1.765297   0.000000
    13  H    2.510772   2.508633   0.000000
    14  H    2.539429   3.080483   1.770942   0.000000
    15  H    3.080088   2.501579   1.769266   1.776294   0.000000
    16  C    5.615073   5.047393   6.611801   5.786660   5.245193
    17  H    6.234966   5.782967   7.033843   6.014373   5.559706
    18  H    6.077240   5.597211   7.377825   6.579812   6.142115
    19  H    5.805553   4.909797   6.548039   5.965553   5.102482
    20  Cl   5.612377   4.095789   5.689922   5.809245   4.355276
                   16         17         18         19         20
    16  C    0.000000
    17  H    1.089950   0.000000
    18  H    1.090169   1.787910   0.000000
    19  H    1.093633   1.791888   1.792397   0.000000
    20  Cl   3.569743   4.223250   4.217193   2.600915   0.000000
 Stoichiometry    C6H11ClN2
 Framework group  C1[X(C6H11ClN2)]
 Deg. of freedom    54
 Full point group                 C1      NOp   1
 Largest Abelian subgroup         C1      NOp   1
 Largest concise Abelian subgroup C1      NOp   1
                         Standard orientation:                         
 ---------------------------------------------------------------------
 Center     Atomic      Atomic             Coordinates (Angstroms)
 Number     Number       Type             X           Y           Z
 ---------------------------------------------------------------------
      1          6           0        1.873978    1.220944   -0.170348
      2          6           0        0.892183    2.128658    0.081801
      3          6           0       -0.072483    0.146609   -0.193764
      4          7           0        1.249408   -0.004796   -0.344197
      5          1           0        2.940918    1.338338   -0.245385
      6          1           0        0.941997    3.188192    0.262359
      7          1           0       -0.891115   -0.620317   -0.233537
      8          7           0       -0.307818    1.437431    0.063530
      9          6           0        1.906649   -1.304270   -0.556443
     10          6           0        2.254521   -1.986197    0.762140
     11          1           0        2.794378   -1.120869   -1.163984
     12          1           0        1.216872   -1.912850   -1.141267
     13          1           0        2.742703   -2.942569    0.563069
     14          1           0        2.932898   -1.372135    1.359184
     15          1           0        1.350271   -2.178507    1.342587
     16          6           0       -1.652305    1.988933    0.280031
     17          1           0       -1.686815    2.477516    1.253728
     18          1           0       -1.881244    2.705648   -0.508876
     19          1           0       -2.356818    1.152997    0.249932
     20         17           0       -2.700613   -1.406586   -0.058450
 ---------------------------------------------------------------------
 Rotational constants (GHZ):      1.4343581      0.9292626      0.5945540
 Standard basis: 6-311+G(d,p) (5D, 7F)
 There are   281 symmetry adapted cartesian basis functions of A   symmetry.
 There are   272 symmetry adapted basis functions of A   symmetry.
   272 basis functions,   429 primitive gaussians,   281 cartesian basis functions
    39 alpha electrons       39 beta electrons
       nuclear repulsion energy       513.2403128460 Hartrees.
 NAtoms=   20 NActive=   20 NUniq=   20 SFac= 1.00D+00 NAtFMM=   60 NAOKFM=F Big=F
 Integral buffers will be    131072 words long.
 Raffenetti 2 integral format.
 Two-electron integral symmetry is turned on.
 Nuclear repulsion after empirical dispersion term =      513.2086366639 Hartrees.
 One-electron integrals computed using PRISM.
 NBasis=   272 RedAO= T EigKep=  1.83D-05  NBF=   272
 NBsUse=   272 1.00D-06 EigRej= -1.00D+00 NBFU=   272
 ExpMin= 4.38D-02 ExpMax= 1.06D+05 ExpMxC= 3.62D+03 IAcc=3 IRadAn=         5 AccDes= 0.00D+00
 Harris functional with IExCor=  402 and IRadAn=       5 diagonalized for initial guess.
 HarFok:  IExCor=  402 AccDes= 0.00D+00 IRadAn=         5 IDoV= 1 UseB2=F ITyADJ=14
 ICtDFT=  3500011 ScaDFX=  1.000000  1.000000  1.000000  1.000000
 FoFCou: FMM=F IPFlag=           0 FMFlag=      100000 FMFlg1=           0
         NFxFlg=           0 DoJE=T BraDBF=F KetDBF=T FulRan=T
         wScrn=  0.000000 ICntrl=     500 IOpCl=  0 I1Cent=   200000004 NGrid=           0
         NMat0=    1 NMatS0=      1 NMatT0=    0 NMatD0=    1 NMtDS0=    0 NMtDT0=    0
 Petite list used in FoFCou.
 Keep R1 ints in memory in canonical form, NReq=700735283.
 Requested convergence on RMS density matrix=1.00D-09 within 128 cycles.
 Requested convergence on MAX density matrix=1.00D-07.
 Requested convergence on             energy=1.00D-07.
 No special actions if energy rises.
 SCF Done:  E(RB3LYP) =  -805.116815912     A.U. after   15 cycles
            NFock= 15  Conv=0.40D-09     -V/T= 2.0033

 **********************************************************************

            Population analysis using the SCF density.

 **********************************************************************

 Orbital symmetries:
       Occupied  (A) (A) (A) (A) (A) (A) (A) (A) (A) (A) (A) (A)
                 (A) (A) (A) (A) (A) (A) (A) (A) (A) (A) (A) (A)
                 (A) (A) (A) (A) (A) (A) (A) (A) (A) (A) (A) (A)
                 (A) (A) (A)
       Virtual   (A) (A) (A) (A) (A) (A) (A) (A) (A) (A) (A) (A)
                 (A) (A) (A) (A) (A) (A) (A) (A) (A) (A) (A) (A)
                 (A) (A) (A) (A) (A) (A) (A) (A) (A) (A) (A) (A)
                 (A) (A) (A) (A) (A) (A) (A) (A) (A) (A) (A) (A)
                 (A) (A) (A) (A) (A) (A) (A) (A) (A) (A) (A) (A)
                 (A) (A) (A) (A) (A) (A) (A) (A) (A) (A) (A) (A)
                 (A) (A) (A) (A) (A) (A) (A) (A) (A) (A) (A) (A)
                 (A) (A) (A) (A) (A) (A) (A) (A) (A) (A) (A) (A)
                 (A) (A) (A) (A) (A) (A) (A) (A) (A) (A) (A) (A)
                 (A) (A) (A) (A) (A) (A) (A) (A) (A) (A) (A) (A)
                 (A) (A) (A) (A) (A) (A) (A) (A) (A) (A) (A) (A)
                 (A) (A) (A) (A) (A) (A) (A) (A) (A) (A) (A) (A)
                 (A) (A) (A) (A) (A) (A) (A) (A) (A) (A) (A) (A)
                 (A) (A) (A) (A) (A) (A) (A) (A) (A) (A) (A) (A)
                 (A) (A) (A) (A) (A) (A) (A) (A) (A) (A) (A) (A)
                 (A) (A) (A) (A) (A) (A) (A) (A) (A) (A) (A) (A)
                 (A) (A) (A) (A) (A) (A) (A) (A) (A) (A) (A) (A)
                 (A) (A) (A) (A) (A) (A) (A) (A) (A) (A) (A) (A)
                 (A) (A) (A) (A) (A) (A) (A) (A) (A) (A) (A) (A)
                 (A) (A) (A) (A) (A)
 The electronic state is 1-A.
 Alpha  occ. eigenvalues -- -101.39381 -14.43203 -14.43055 -10.27686 -10.26256
 Alpha  occ. eigenvalues --  -10.26053 -10.25954 -10.23188 -10.19978  -9.30779
 Alpha  occ. eigenvalues --   -7.06635  -7.06586  -7.06569  -1.10195  -0.98513
 Alpha  occ. eigenvalues --   -0.84223  -0.80758  -0.75994  -0.69777  -0.66582
 Alpha  occ. eigenvalues --   -0.66282  -0.63155  -0.58498  -0.53165  -0.52045
 Alpha  occ. eigenvalues --   -0.50533  -0.49624  -0.47810  -0.47281  -0.47023
 Alpha  occ. eigenvalues --   -0.42935  -0.42371  -0.41629  -0.39743  -0.33909
 Alpha  occ. eigenvalues --   -0.30169  -0.20012  -0.19698  -0.19452
 Alpha virt. eigenvalues --   -0.04348  -0.03569  -0.02375  -0.00939   0.00296
 Alpha virt. eigenvalues --    0.00803   0.02197   0.02271   0.03391   0.03829
 Alpha virt. eigenvalues --    0.04816   0.05916   0.06110   0.06759   0.06944
 Alpha virt. eigenvalues --    0.07747   0.08202   0.09523   0.10128   0.10842
 Alpha virt. eigenvalues --    0.11656   0.12128   0.12574   0.13001   0.13833
 Alpha virt. eigenvalues --    0.14460   0.14693   0.15154   0.15495   0.16065
 Alpha virt. eigenvalues --    0.16399   0.16785   0.17032   0.18041   0.18421
 Alpha virt. eigenvalues --    0.19458   0.19813   0.20249   0.20840   0.21069
 Alpha virt. eigenvalues --    0.21609   0.22322   0.23110   0.24147   0.24684
 Alpha virt. eigenvalues --    0.25469   0.26235   0.26658   0.27457   0.27862
 Alpha virt. eigenvalues --    0.30092   0.31791   0.33865   0.35744   0.37426
 Alpha virt. eigenvalues --    0.37844   0.39168   0.40773   0.41197   0.43702
 Alpha virt. eigenvalues --    0.44650   0.47425   0.48364   0.51009   0.51561
 Alpha virt. eigenvalues --    0.52440   0.53583   0.53991   0.55100   0.55662
 Alpha virt. eigenvalues --    0.57648   0.58531   0.59773   0.60757   0.60880
 Alpha virt. eigenvalues --    0.61791   0.62138   0.64114   0.64805   0.65122
 Alpha virt. eigenvalues --    0.65882   0.66821   0.68163   0.70554   0.71729
 Alpha virt. eigenvalues --    0.73008   0.74355   0.75271   0.76727   0.79743
 Alpha virt. eigenvalues --    0.82065   0.83614   0.86886   0.89922   0.92012
 Alpha virt. eigenvalues --    0.92585   0.94243   0.95036   0.98308   1.00930
 Alpha virt. eigenvalues --    1.01110   1.01246   1.01567   1.02953   1.04081
 Alpha virt. eigenvalues --    1.04300   1.06297   1.10973   1.11931   1.12436
 Alpha virt. eigenvalues --    1.16650   1.23956   1.25480   1.27336   1.28040
 Alpha virt. eigenvalues --    1.30716   1.38283   1.39428   1.40989   1.42273
 Alpha virt. eigenvalues --    1.43579   1.45249   1.48637   1.50323   1.51532
 Alpha virt. eigenvalues --    1.52351   1.52697   1.55337   1.56172   1.57554
 Alpha virt. eigenvalues --    1.59248   1.60212   1.61451   1.64600   1.64941
 Alpha virt. eigenvalues --    1.66293   1.68197   1.69041   1.70099   1.74184
 Alpha virt. eigenvalues --    1.75038   1.77329   1.78560   1.79518   1.83651
 Alpha virt. eigenvalues --    1.84363   1.88412   1.93607   1.97344   1.99134
 Alpha virt. eigenvalues --    2.01439   2.04659   2.07368   2.07662   2.10764
 Alpha virt. eigenvalues --    2.14777   2.16665   2.17806   2.19290   2.24734
 Alpha virt. eigenvalues --    2.26551   2.30236   2.36617   2.37983   2.39625
 Alpha virt. eigenvalues --    2.40596   2.40927   2.43308   2.44931   2.45882
 Alpha virt. eigenvalues --    2.46897   2.48813   2.50286   2.50761   2.52124
 Alpha virt. eigenvalues --    2.54421   2.54664   2.58139   2.59298   2.60383
 Alpha virt. eigenvalues --    2.60843   2.62755   2.63167   2.65029   2.67589
 Alpha virt. eigenvalues --    2.71020   2.72828   2.74809   2.76587   2.78806
 Alpha virt. eigenvalues --    2.82141   2.83466   2.88693   2.91733   2.94531
 Alpha virt. eigenvalues --    2.95802   2.97604   3.10008   3.17749   3.24859
 Alpha virt. eigenvalues --    3.35637   3.54903   3.56090   3.61807   3.65759
 Alpha virt. eigenvalues --    3.70681   3.73145   3.76356   3.78159   3.78915
 Alpha virt. eigenvalues --    3.82653   3.86686   3.88507   3.89816   4.07160
 Alpha virt. eigenvalues --    4.19440   4.68823   4.90255   4.92003   5.23258
 Alpha virt. eigenvalues --    9.85511  23.71295  23.81700  23.86279  23.89680
 Alpha virt. eigenvalues --   23.93657  24.13929  25.93530  26.03147  26.20437
 Alpha virt. eigenvalues --   35.42472  35.57389 215.84283
          Condensed to atoms (all electrons):
               1          2          3          4          5          6
     1  C    6.214599  -0.326179  -0.151144   0.026712   0.447408  -0.084973
     2  C   -0.326179   5.878758   0.016168   0.124190  -0.052238   0.478877
     3  C   -0.151144   0.016168   5.598489   0.317946   0.014621   0.017151
     4  N    0.026712   0.124190   0.317946   6.857877  -0.058204   0.026768
     5  H    0.447408  -0.052238   0.014621  -0.058204   0.488796  -0.002224
     6  H   -0.084973   0.478877   0.017151   0.026768  -0.002224   0.486977
     7  H   -0.095491   0.042993   0.227864  -0.025011   0.000205   0.000251
     8  N    0.227927   0.068523   0.438510  -0.250515   0.021459  -0.069526
     9  C    0.061328  -0.134356  -0.078102   0.078063  -0.020745   0.000778
    10  C   -0.116000   0.051840  -0.057086  -0.020092   0.008756   0.000255
    11  H   -0.015172   0.022365   0.007052  -0.048573   0.000198   0.000016
    12  H   -0.002486  -0.008322   0.000946  -0.049656   0.000127   0.000022
    13  H   -0.001576   0.003986   0.006928   0.020436  -0.000073  -0.000001
    14  H    0.022952  -0.020436  -0.015190  -0.019209   0.000030  -0.000001
    15  H   -0.007416   0.001130   0.002367  -0.008555  -0.000012   0.000006
    16  C   -0.079843  -0.043412  -0.164018  -0.021559   0.000216  -0.006033
    17  H    0.023166  -0.014134   0.003196  -0.005223   0.000007  -0.000150
    18  H   -0.005355   0.004898  -0.015959  -0.002354   0.000010   0.000018
    19  H    0.001220   0.004434   0.034582   0.014527   0.000022   0.000055
    20  Cl  -0.039927   0.020680  -0.039117   0.002910   0.000072   0.000110
               7          8          9         10         11         12
     1  C   -0.095491   0.227927   0.061328  -0.116000  -0.015172  -0.002486
     2  C    0.042993   0.068523  -0.134356   0.051840   0.022365  -0.008322
     3  C    0.227864   0.438510  -0.078102  -0.057086   0.007052   0.000946
     4  N   -0.025011  -0.250515   0.078063  -0.020092  -0.048573  -0.049656
     5  H    0.000205   0.021459  -0.020745   0.008756   0.000198   0.000127
     6  H    0.000251  -0.069526   0.000778   0.000255   0.000016   0.000022
     7  H    0.545749  -0.069183  -0.003787   0.028638   0.000910   0.002126
     8  N   -0.069183   6.600096   0.006933  -0.020506  -0.007747   0.006231
     9  C   -0.003787   0.006933   5.485132  -0.009898   0.422899   0.456580
    10  C    0.028638  -0.020506  -0.009898   5.381598  -0.046274  -0.043481
    11  H    0.000910  -0.007747   0.422899  -0.046274   0.543910  -0.030318
    12  H    0.002126   0.006231   0.456580  -0.043481  -0.030318   0.475222
    13  H   -0.000200  -0.000497  -0.078546   0.428677  -0.002341  -0.003389
    14  H   -0.000206   0.004038   0.025970   0.377892  -0.009960   0.005846
    15  H    0.001599  -0.003073  -0.026911   0.419973   0.006556  -0.006503
    16  C    0.005437   0.249471  -0.015258  -0.004392   0.000289  -0.000149
    17  H   -0.000056  -0.043637   0.001833  -0.000257  -0.000005   0.000003
    18  H   -0.000109  -0.032973  -0.002034   0.000227  -0.000003   0.000005
    19  H   -0.006035  -0.042483   0.002527   0.000270  -0.000004   0.000035
    20  Cl   0.186696  -0.050515   0.007552   0.011177   0.000096   0.000761
              13         14         15         16         17         18
     1  C   -0.001576   0.022952  -0.007416  -0.079843   0.023166  -0.005355
     2  C    0.003986  -0.020436   0.001130  -0.043412  -0.014134   0.004898
     3  C    0.006928  -0.015190   0.002367  -0.164018   0.003196  -0.015959
     4  N    0.020436  -0.019209  -0.008555  -0.021559  -0.005223  -0.002354
     5  H   -0.000073   0.000030  -0.000012   0.000216   0.000007   0.000010
     6  H   -0.000001  -0.000001   0.000006  -0.006033  -0.000150   0.000018
     7  H   -0.000200  -0.000206   0.001599   0.005437  -0.000056  -0.000109
     8  N   -0.000497   0.004038  -0.003073   0.249471  -0.043637  -0.032973
     9  C   -0.078546   0.025970  -0.026911  -0.015258   0.001833  -0.002034
    10  C    0.428677   0.377892   0.419973  -0.004392  -0.000257   0.000227
    11  H   -0.002341  -0.009960   0.006556   0.000289  -0.000005  -0.000003
    12  H   -0.003389   0.005846  -0.006503  -0.000149   0.000003   0.000005
    13  H    0.511706  -0.025295  -0.019398   0.000101   0.000000   0.000000
    14  H   -0.025295   0.542030  -0.028958  -0.000242   0.000000   0.000001
    15  H   -0.019398  -0.028958   0.488742  -0.000756  -0.000001   0.000000
    16  C    0.000101  -0.000242  -0.000756   5.204769   0.387564   0.413814
    17  H    0.000000   0.000000  -0.000001   0.387564   0.537433  -0.039460
    18  H    0.000000   0.000001   0.000000   0.413814  -0.039460   0.520098
    19  H    0.000000   0.000001   0.000014   0.343146  -0.013830  -0.014495
    20  Cl   0.000005  -0.000052   0.000312  -0.057113   0.000993   0.001682
              19         20
     1  C    0.001220  -0.039927
     2  C    0.004434   0.020680
     3  C    0.034582  -0.039117
     4  N    0.014527   0.002910
     5  H    0.000022   0.000072
     6  H    0.000055   0.000110
     7  H   -0.006035   0.186696
     8  N   -0.042483  -0.050515
     9  C    0.002527   0.007552
    10  C    0.000270   0.011177
    11  H   -0.000004   0.000096
    12  H    0.000035   0.000761
    13  H    0.000000   0.000005
    14  H    0.000001  -0.000052
    15  H    0.000014   0.000312
    16  C    0.343146  -0.057113
    17  H   -0.013830   0.000993
    18  H   -0.014495   0.001682
    19  H    0.408272   0.044095
    20  Cl   0.044095  17.601190
 Mulliken charges:
               1
     1  C   -0.099752
     2  C   -0.119765
     3  C   -0.165203
     4  N    0.039520
     5  H    0.151567
     6  H    0.151622
     7  H    0.157611
     8  N   -0.032532
     9  C   -0.179958
    10  C   -0.391318
    11  H    0.156105
    12  H    0.196400
    13  H    0.159475
    14  H    0.140789
    15  H    0.180885
    16  C   -0.212032
    17  H    0.162557
    18  H    0.171987
    19  H    0.223648
    20  Cl  -0.691607
 Sum of Mulliken charges =   0.00000
 Mulliken charges with hydrogens summed into heavy atoms:
               1
     1  C    0.051814
     2  C    0.031857
     3  C   -0.007592
     4  N    0.039520
     8  N   -0.032532
     9  C    0.172547
    10  C    0.089831
    16  C    0.346161
    20  Cl  -0.691607
 Electronic spatial extent (au):  <R**2>=           1880.9226
 Charge=              0.0000 electrons
 Dipole moment (field-independent basis, Debye):
    X=             10.8776    Y=              6.5700    Z=              0.0099  Tot=             12.7077
 Quadrupole moment (field-independent basis, Debye-Ang):
   XX=            -77.8814   YY=            -58.3273   ZZ=            -64.9984
   XY=            -18.5533   XZ=             -2.2383   YZ=              1.5355
 Traceless Quadrupole moment (field-independent basis, Debye-Ang):
   XX=            -10.8124   YY=              8.7417   ZZ=              2.0707
   XY=            -18.5533   XZ=             -2.2383   YZ=              1.5355
 Octapole moment (field-independent basis, Debye-Ang**2):
  XXX=            101.6579  YYY=             37.1256  ZZZ=              0.4506  XYY=             29.0842
  XXY=             45.0081  XXZ=             -0.7125  XZZ=              4.3531  YZZ=              0.8064
  YYZ=              3.0347  XYZ=              0.9266
 Hexadecapole moment (field-independent basis, Debye-Ang**3):
 XXXX=          -1599.7389 YYYY=           -916.7596 ZZZZ=           -151.7270 XXXY=           -129.6131
 XXXZ=            -20.3133 YYYX=            -68.6592 YYYZ=             11.5469 ZZZX=             -4.8975
 ZZZY=              4.3203 XXYY=           -428.1619 XXZZ=           -276.5563 YYZZ=           -190.7905
 XXYZ=              0.4954 YYXZ=             -2.3065 ZZXY=            -17.7512
 N-N= 5.132086366639D+02 E-N=-2.920783606147D+03  KE= 8.024471303077D+02
 Calling FoFJK, ICntrl=      2127 FMM=F ISym2X=0 I1Cent= 0 IOpClX= 0 NMat=1 NMatS=1 NMatT=0.
 ***** Axes restored to original set *****
 -------------------------------------------------------------------
 Center     Atomic                   Forces (Hartrees/Bohr)
 Number     Number              X              Y              Z
 -------------------------------------------------------------------
      1        6           0.000023151    0.000004658    0.000146136
      2        6           0.000005879    0.000010326   -0.000001147
      3        6          -0.000015317   -0.000029427   -0.000251953
      4        7          -0.000020234    0.000006786   -0.000007764
      5        1           0.000000176    0.000000245   -0.000001613
      6        1          -0.000000712   -0.000000353    0.000001074
      7        1          -0.000009506   -0.000008966    0.000004317
      8        7           0.000003557   -0.000005884    0.000006363
      9        6          -0.000004338    0.000003465    0.000003732
     10        6           0.000001016    0.000000705    0.000001336
     11        1          -0.000001875   -0.000000208   -0.000001222
     12        1          -0.000000125    0.000000120   -0.000002216
     13        1          -0.000000003    0.000000763   -0.000001760
     14        1           0.000000011    0.000000680   -0.000001325
     15        1           0.000000069    0.000001220    0.000000091
     16        6          -0.000003824    0.000003090   -0.000000267
     17        1           0.000001176    0.000003234    0.000000207
     18        1           0.000001503   -0.000000682   -0.000000319
     19        1           0.000000079   -0.000000306    0.000001184
     20       17           0.000019315    0.000010535    0.000105147
 -------------------------------------------------------------------
 Cartesian Forces:  Max     0.000251953 RMS     0.000040637

 GradGradGradGradGradGradGradGradGradGradGradGradGradGradGradGradGradGrad
 Berny optimization.
 FormGI is forming the generalized inverse of G from B-inverse, IUseBI=4.
 Internal  Forces:  Max     0.000210307 RMS     0.000028509
 Search for a local minimum.
 Step number   1 out of a maximum of  107
 All quantities printed in internal units (Hartrees-Bohrs-Radians)
 Mixed Optimization -- En-DIIS/RFO-DIIS
 Second derivative matrix not updated -- first step.
 ITU=  0
     Eigenvalues ---    0.00230   0.00439   0.00741   0.00776   0.01005
     Eigenvalues ---    0.01511   0.01629   0.02109   0.02170   0.02378
     Eigenvalues ---    0.02392   0.02507   0.04278   0.05296   0.05577
     Eigenvalues ---    0.05762   0.05917   0.07588   0.07806   0.09461
     Eigenvalues ---    0.12751   0.15961   0.15999   0.16000   0.16000
     Eigenvalues ---    0.16000   0.16000   0.16000   0.16000   0.16000
     Eigenvalues ---    0.21963   0.22824   0.23535   0.24881   0.25000
     Eigenvalues ---    0.29919   0.31313   0.34396   0.34516   0.34575
     Eigenvalues ---    0.34630   0.34670   0.34790   0.34793   0.34818
     Eigenvalues ---    0.35543   0.35831   0.36482   0.36487   0.43028
     Eigenvalues ---    0.46066   0.49286   0.55530   0.56205
 RFO step:  Lambda=-4.95154981D-06 EMin= 2.30000000D-03
 Linear search not attempted -- first point.
 Iteration  1 RMS(Cart)=  0.00415658 RMS(Int)=  0.00002423
 Iteration  2 RMS(Cart)=  0.00002994 RMS(Int)=  0.00000179
 Iteration  3 RMS(Cart)=  0.00000000 RMS(Int)=  0.00000179
 Variable       Old X    -DE/DX   Delta X   Delta X   Delta X     New X
                                 (Linear)    (Quad)   (Total)
    R1        2.57131  -0.00001   0.00000  -0.00002  -0.00002   2.57129
    R2        2.62036   0.00001   0.00000   0.00001   0.00001   2.62037
    R3        2.03334   0.00000   0.00000   0.00000   0.00000   2.03335
    R4        2.03327   0.00000   0.00000   0.00000   0.00000   2.03327
    R5        2.61720   0.00001   0.00000   0.00002   0.00002   2.61722
    R6        2.53036   0.00000   0.00000   0.00000   0.00000   2.53036
    R7        2.12114   0.00000   0.00000   0.00001   0.00001   2.12115
    R8        2.52673   0.00001   0.00000   0.00002   0.00002   2.52675
    R9        2.78095  -0.00001   0.00000  -0.00002  -0.00002   2.78092
   R10        3.74297   0.00000   0.00000  -0.00009  -0.00009   3.74288
   R11        2.77647   0.00000   0.00000  -0.00001  -0.00001   2.77646
   R12        2.88126   0.00000   0.00000   0.00000   0.00000   2.88126
   R13        2.06215   0.00000   0.00000   0.00000   0.00000   2.06214
   R14        2.05987   0.00001   0.00000   0.00001   0.00001   2.05988
   R15        2.06370   0.00000   0.00000   0.00000   0.00000   2.06370
   R16        2.06468   0.00000   0.00000   0.00000   0.00000   2.06467
   R17        2.06281   0.00000   0.00000   0.00000   0.00000   2.06281
   R18        2.05971   0.00000   0.00000   0.00000   0.00000   2.05971
   R19        2.06012   0.00000   0.00000   0.00000   0.00000   2.06012
   R20        2.06667   0.00000   0.00000   0.00000   0.00000   2.06667
    A1        1.86286   0.00000   0.00000  -0.00001  -0.00001   1.86285
    A2        2.28579   0.00000   0.00000   0.00001   0.00001   2.28580
    A3        2.13451   0.00000   0.00000   0.00000   0.00000   2.13451
    A4        2.28446   0.00000   0.00000   0.00001   0.00001   2.28447
    A5        1.86481   0.00000   0.00000  -0.00001  -0.00001   1.86480
    A6        2.13389   0.00000   0.00000   0.00000   0.00000   2.13388
    A7        2.26368   0.00001   0.00000   0.00003   0.00003   2.26371
    A8        1.88024  -0.00001   0.00000  -0.00005  -0.00005   1.88020
    A9        2.13894   0.00000   0.00000   0.00001   0.00001   2.13894
   A10        1.90776   0.00001   0.00000   0.00004   0.00004   1.90780
   A11        2.21116  -0.00001   0.00000  -0.00005  -0.00005   2.21111
   A12        2.16151   0.00000   0.00000   0.00000   0.00000   2.16151
   A13        1.90907   0.00001   0.00000   0.00003   0.00003   1.90910
   A14        2.21879  -0.00001   0.00000  -0.00005  -0.00005   2.21874
   A15        2.15531   0.00001   0.00000   0.00003   0.00003   2.15534
   A16        1.95207   0.00000   0.00000   0.00001   0.00001   1.95208
   A17        1.87047   0.00000   0.00000  -0.00002  -0.00002   1.87045
   A18        1.86269  -0.00001   0.00000  -0.00001  -0.00001   1.86269
   A19        1.95093   0.00000   0.00000   0.00000   0.00000   1.95093
   A20        1.93763   0.00001   0.00000   0.00003   0.00003   1.93766
   A21        1.88590   0.00000   0.00000  -0.00002  -0.00002   1.88588
   A22        1.91349   0.00000   0.00000  -0.00001  -0.00001   1.91349
   A23        1.94215   0.00000   0.00000   0.00000   0.00000   1.94214
   A24        1.92800   0.00000   0.00000   0.00000   0.00000   1.92800
   A25        1.89046   0.00000   0.00000   0.00000   0.00000   1.89047
   A26        1.88910   0.00000   0.00000   0.00001   0.00001   1.88911
   A27        1.89946   0.00000   0.00000   0.00000   0.00000   1.89946
   A28        1.90591   0.00000   0.00000  -0.00002  -0.00002   1.90589
   A29        1.90955   0.00000   0.00000  -0.00002  -0.00002   1.90954
   A30        1.87394   0.00000   0.00000   0.00001   0.00001   1.87395
   A31        1.92316   0.00000   0.00000   0.00000   0.00000   1.92317
   A32        1.92498   0.00000   0.00000   0.00002   0.00002   1.92500
   A33        1.92551   0.00000   0.00000   0.00000   0.00000   1.92551
   A34        3.50576   0.00003   0.00000  -0.00082  -0.00081   3.50494
   A35        3.15187  -0.00014   0.00000  -0.01481  -0.01482   3.13705
    D1       -3.12763   0.00000   0.00000   0.00001   0.00001  -3.12762
    D2        0.00542   0.00001   0.00000   0.00012   0.00012   0.00554
    D3        0.00717  -0.00001   0.00000  -0.00006  -0.00006   0.00710
    D4        3.14021   0.00000   0.00000   0.00005   0.00005   3.14027
    D5       -0.00730  -0.00001   0.00000  -0.00014  -0.00014  -0.00744
    D6       -3.07113   0.00000   0.00000   0.00002   0.00002  -3.07111
    D7        3.14036  -0.00001   0.00000  -0.00007  -0.00008   3.14028
    D8        0.07653   0.00000   0.00000   0.00008   0.00008   0.07661
    D9       -0.00177  -0.00001   0.00000  -0.00007  -0.00007  -0.00184
   D10       -3.13873  -0.00001   0.00000  -0.00011  -0.00011  -3.13884
   D11        3.13218   0.00000   0.00000   0.00004   0.00004   3.13222
   D12       -0.00478   0.00000   0.00000   0.00000   0.00000  -0.00478
   D13       -3.10809   0.00006   0.00000   0.00064   0.00064  -3.10744
   D14       -0.04157   0.00005   0.00000   0.00049   0.00049  -0.04108
   D15        0.00623   0.00001   0.00000   0.00010   0.00010   0.00633
   D16        3.07274   0.00000   0.00000  -0.00006  -0.00006   3.07269
   D17       -3.04274   0.00021   0.00000   0.01328   0.01327  -3.02947
   D18       -0.00277   0.00000   0.00000  -0.00002  -0.00002  -0.00279
   D19        3.13439   0.00001   0.00000   0.00002   0.00002   3.13441
   D20        3.11392  -0.00005   0.00000  -0.00051  -0.00052   3.11341
   D21       -0.03210  -0.00005   0.00000  -0.00048  -0.00048  -0.03258
   D22        1.51950   0.00000   0.00000  -0.00001  -0.00001   1.51949
   D23       -0.62443   0.00000   0.00000   0.00000   0.00000  -0.62442
   D24       -2.64143   0.00000   0.00000   0.00004   0.00004  -2.64139
   D25       -1.53370   0.00001   0.00000   0.00017   0.00017  -1.53353
   D26        2.60556   0.00001   0.00000   0.00018   0.00018   2.60574
   D27        0.58856   0.00001   0.00000   0.00021   0.00021   0.58877
   D28       -1.00037   0.00001   0.00000   0.00017   0.00017  -1.00020
   D29        1.10581   0.00000   0.00000   0.00015   0.00016   1.10596
   D30       -3.08754   0.00000   0.00000   0.00015   0.00015  -3.08739
   D31        2.14646   0.00000   0.00000   0.00013   0.00013   2.14659
   D32       -2.03055   0.00000   0.00000   0.00011   0.00011  -2.03044
   D33        0.05929   0.00000   0.00000   0.00011   0.00011   0.05940
   D34       -3.13763   0.00000   0.00000   0.00000   0.00000  -3.13763
   D35       -1.04671   0.00000   0.00000   0.00000   0.00000  -1.04671
   D36        1.06517   0.00000   0.00000   0.00000   0.00000   1.06516
   D37       -1.04014   0.00000   0.00000  -0.00002  -0.00002  -1.04016
   D38        1.05079   0.00000   0.00000  -0.00003  -0.00003   1.05076
   D39       -3.12052   0.00000   0.00000  -0.00003  -0.00003  -3.12055
   D40        1.06706   0.00000   0.00000  -0.00002  -0.00002   1.06704
   D41       -3.12520   0.00000   0.00000  -0.00002  -0.00002  -3.12522
   D42       -1.01332   0.00000   0.00000  -0.00003  -0.00003  -1.01334
         Item               Value     Threshold  Converged?
 Maximum Force            0.000210     0.000450     YES
 RMS     Force            0.000029     0.000300     YES
 Maximum Displacement     0.030293     0.001800     NO 
 RMS     Displacement     0.004161     0.001200     NO 
 Predicted change in Energy=-2.479029D-06
 GradGradGradGradGradGradGradGradGradGradGradGradGradGradGradGradGradGrad

                          Input orientation:                          
 ---------------------------------------------------------------------
 Center     Atomic      Atomic             Coordinates (Angstroms)
 Number     Number       Type             X           Y           Z
 ---------------------------------------------------------------------
      1          6           0       -0.328991    1.804798   -0.215969
      2          6           0       -1.657053    1.664385    0.044694
      3          6           0       -0.787601   -0.370001   -0.156598
      4          7           0        0.190361    0.525398   -0.343150
      5          1           0        0.279129    2.685682   -0.325565
      6          1           0       -2.426149    2.400735    0.199533
      7          1           0       -0.741940   -1.491535   -0.153838
      8          7           0       -1.917914    0.304612    0.078175
      9          6           0        1.603019    0.166038   -0.545307
     10          6           0        2.349581    0.033291    0.777466
     11          1           0        2.042810    0.934548   -1.183102
     12          1           0        1.611678   -0.775031   -1.095310
     13          1           0        3.392083   -0.229410    0.585696
     14          1           0        2.329354    0.969796    1.339852
     15          1           0        1.905665   -0.754530    1.388895
     16          6           0       -3.213405   -0.344038    0.322347
     17          1           0       -3.603524   -0.014322    1.285200
     18          1           0       -3.907373   -0.078927   -0.475520
     19          1           0       -3.041037   -1.423954    0.332597
     20         17           0       -1.318158   -3.367186    0.116114
 ---------------------------------------------------------------------
                    Distance matrix (angstroms):
                    1          2          3          4          5
     1  C    0.000000
     2  C    1.360666   0.000000
     3  C    2.223421   2.221529   0.000000
     4  N    1.386638   2.204689   1.339011   0.000000
     5  H    1.076000   2.220122   3.240935   2.162178   0.000000
     6  H    2.219427   1.075963   3.238618   3.264586   2.770460
     7  H    3.322679   3.291910   1.122466   2.230032   4.303627
     8  N    2.204939   1.384973   1.337097   2.161269   3.264888
     9  C    2.554733   3.636099   2.480624   1.471602   2.854747
    10  C    3.361532   4.387544   3.298034   2.481971   3.540992
    11  H    2.705203   3.965997   3.281277   2.074726   2.629147
    12  H    3.345886   4.234969   2.608019   2.068091   3.787444
    13  H    4.315908   5.419679   4.247414   3.418116   4.361037
    14  H    3.191332   4.248685   3.708075   2.757766   3.149809
    15  H    3.757584   4.511207   3.128912   2.753265   4.173733
    16  C    3.636912   2.555990   2.472770   3.575532   4.668702
    17  H    4.035502   2.854060   3.183507   4.163699   4.995956
    18  H    4.052235   2.893734   3.149510   4.144171   5.019197
    19  H    4.252171   3.396488   2.535371   3.833868   5.324075
    20  Cl   5.276187   5.043476   3.055975   4.199853   6.275637
                    6          7          8          9         10
     6  H    0.000000
     7  H    4.255725   0.000000
     8  N    2.160270   2.159371   0.000000
     9  C    4.667211   2.898212   3.578394   0.000000
    10  C    5.361567   3.570703   4.332913   1.524698   0.000000
    11  H    4.902345   3.834070   4.204161   1.091240   2.179495
    12  H    5.297750   2.634248   3.873075   1.090041   2.169141
    13  H    6.396766   4.385205   5.360860   2.153206   1.092061
    14  H    5.095363   4.209763   4.480355   2.174261   1.092579
    15  H    5.489526   3.151668   4.178459   2.163372   1.091590
    16  C    2.858082   2.766160   1.469239   4.920462   5.594312
    17  H    2.897824   3.527272   2.097597   5.521900   5.974908
    18  H    2.966217   3.481222   2.100388   5.516276   6.382166
    19  H    3.876085   2.350964   2.077035   4.986587   5.601806
    20  Cl   5.873969   1.980649   3.720651   4.631893   5.045091
                   11         12         13         14         15
    11  H    0.000000
    12  H    1.765288   0.000000
    13  H    2.510774   2.508651   0.000000
    14  H    2.539419   3.080502   1.770943   0.000000
    15  H    3.080091   2.501624   1.769270   1.776293   0.000000
    16  C    5.615065   5.047468   6.611730   5.786506   5.245084
    17  H    6.234898   5.783064   7.033782   6.014193   5.559661
    18  H    6.077210   5.597198   7.377729   6.579677   6.141978
    19  H    5.805633   4.909966   6.547979   5.965375   5.102329
    20  Cl   5.611505   4.095211   5.679131   5.797525   4.340390
                   16         17         18         19         20
    16  C    0.000000
    17  H    1.089950   0.000000
    18  H    1.090169   1.787913   0.000000
    19  H    1.093633   1.791900   1.792398   0.000000
    20  Cl   3.574062   4.222719   4.226904   2.606018   0.000000
 Stoichiometry    C6H11ClN2
 Framework group  C1[X(C6H11ClN2)]
 Deg. of freedom    54
 Full point group                 C1      NOp   1
 Largest Abelian subgroup         C1      NOp   1
 Largest concise Abelian subgroup C1      NOp   1
                         Standard orientation:                         
 ---------------------------------------------------------------------
 Center     Atomic      Atomic             Coordinates (Angstroms)
 Number     Number       Type             X           Y           Z
 ---------------------------------------------------------------------
      1          6           0        1.876806    1.218023   -0.163877
      2          6           0        0.896567    2.127734    0.087057
      3          6           0       -0.072602    0.149288   -0.198701
      4          7           0        1.249461   -0.005361   -0.344249
      5          1           0        2.944380    1.332599   -0.234131
      6          1           0        0.948638    3.186543    0.271199
      7          1           0       -0.893194   -0.615257   -0.243749
      8          7           0       -0.305304    1.439971    0.061714
      9          6           0        1.903917   -1.306002   -0.557865
     10          6           0        2.244319   -1.993100    0.759985
     11          1           0        2.794709   -1.123166   -1.161079
     12          1           0        1.214908   -1.910750   -1.147554
     13          1           0        2.730636   -2.950211    0.559905
     14          1           0        2.921911   -1.382862    1.361821
     15          1           0        1.337101   -2.184691    1.336021
     16          6           0       -1.649062    1.994663    0.274540
     17          1           0       -1.686038    2.480391    1.249574
     18          1           0       -1.872786    2.714422   -0.513091
     19          1           0       -2.355842    1.160853    0.239085
     20         17           0       -2.699600   -1.405517   -0.055711
 ---------------------------------------------------------------------
 Rotational constants (GHZ):      1.4320390      0.9309832      0.5947520
 Standard basis: 6-311+G(d,p) (5D, 7F)
 There are   281 symmetry adapted cartesian basis functions of A   symmetry.
 There are   272 symmetry adapted basis functions of A   symmetry.
   272 basis functions,   429 primitive gaussians,   281 cartesian basis functions
    39 alpha electrons       39 beta electrons
       nuclear repulsion energy       513.2499761301 Hartrees.
 NAtoms=   20 NActive=   20 NUniq=   20 SFac= 1.00D+00 NAtFMM=   60 NAOKFM=F Big=F
 Integral buffers will be    131072 words long.
 Raffenetti 2 integral format.
 Two-electron integral symmetry is turned on.
 Nuclear repulsion after empirical dispersion term =      513.2183008530 Hartrees.
 One-electron integrals computed using PRISM.
 NBasis=   272 RedAO= T EigKep=  1.83D-05  NBF=   272
 NBsUse=   272 1.00D-06 EigRej= -1.00D+00 NBFU=   272
 Initial guess from the checkpoint file:  "CJS1_emim-cl_F_6-311+g-d-p-_gd3bj_opt-modredundant_unfrz.chk"
 B after Tr=     0.000000    0.000000    0.000000
         Rot=    1.000000   -0.000203    0.000243    0.000843 Ang=  -0.10 deg.
 ExpMin= 4.38D-02 ExpMax= 1.06D+05 ExpMxC= 3.62D+03 IAcc=2 IRadAn=         4 AccDes= 0.00D+00
 Harris functional with IExCor=  402 and IRadAn=       4 diagonalized for initial guess.
 HarFok:  IExCor=  402 AccDes= 0.00D+00 IRadAn=         4 IDoV= 1 UseB2=F ITyADJ=14
 ICtDFT=  3500011 ScaDFX=  1.000000  1.000000  1.000000  1.000000
 FoFCou: FMM=F IPFlag=           0 FMFlag=      100000 FMFlg1=           0
         NFxFlg=           0 DoJE=T BraDBF=F KetDBF=T FulRan=T
         wScrn=  0.000000 ICntrl=     500 IOpCl=  0 I1Cent=   200000004 NGrid=           0
         NMat0=    1 NMatS0=      1 NMatT0=    0 NMatD0=    1 NMtDS0=    0 NMtDT0=    0
 Petite list used in FoFCou.
 Keep R1 ints in memory in canonical form, NReq=700735283.
 Requested convergence on RMS density matrix=1.00D-09 within 128 cycles.
 Requested convergence on MAX density matrix=1.00D-07.
 Requested convergence on             energy=1.00D-07.
 No special actions if energy rises.
 SCF Done:  E(RB3LYP) =  -805.116819387     A.U. after   11 cycles
            NFock= 11  Conv=0.21D-09     -V/T= 2.0033
 Calling FoFJK, ICntrl=      2127 FMM=F ISym2X=0 I1Cent= 0 IOpClX= 0 NMat=1 NMatS=1 NMatT=0.
 ***** Axes restored to original set *****
 -------------------------------------------------------------------
 Center     Atomic                   Forces (Hartrees/Bohr)
 Number     Number              X              Y              Z
 -------------------------------------------------------------------
      1        6           0.000018766   -0.000009182    0.000147240
      2        6          -0.000002194    0.000016126    0.000025826
      3        6          -0.000117272   -0.000014590   -0.000482252
      4        7          -0.000014017   -0.000006951    0.000014098
      5        1           0.000001693   -0.000002702    0.000005500
      6        1           0.000001338    0.000000836    0.000006491
      7        1           0.000084972   -0.000024763    0.000192655
      8        7          -0.000008034    0.000005291    0.000012378
      9        6           0.000015732   -0.000000339   -0.000000329
     10        6          -0.000006628   -0.000012210    0.000011062
     11        1          -0.000002438    0.000003830   -0.000004173
     12        1           0.000005542   -0.000001830    0.000010737
     13        1          -0.000000039    0.000001895   -0.000004490
     14        1           0.000000871    0.000005983   -0.000005532
     15        1          -0.000005296   -0.000004385   -0.000007306
     16        6           0.000034818   -0.000026451   -0.000062341
     17        1           0.000002115   -0.000034295   -0.000003295
     18        1          -0.000009181    0.000016381   -0.000000428
     19        1           0.000009082    0.000024892    0.000088483
     20       17          -0.000009831    0.000062465    0.000055676
 -------------------------------------------------------------------
 Cartesian Forces:  Max     0.000482252 RMS     0.000075191

 GradGradGradGradGradGradGradGradGradGradGradGradGradGradGradGradGradGrad
 Berny optimization.
 Using GEDIIS/GDIIS optimizer.
 FormGI is forming the generalized inverse of G from B-inverse, IUseBI=4.
 Internal  Forces:  Max     0.000174950 RMS     0.000035265
 Search for a local minimum.
 Step number   2 out of a maximum of  107
 All quantities printed in internal units (Hartrees-Bohrs-Radians)
 Mixed Optimization -- En-DIIS/RFO-DIIS
 Swapping is turned off.
 Update second derivatives using D2CorX and points    1    2
 DE= -3.47D-06 DEPred=-2.48D-06 R= 1.40D+00
 TightC=F SS=  1.41D+00  RLast= 1.99D-02 DXNew= 5.0454D-01 5.9827D-02
 Trust test= 1.40D+00 RLast= 1.99D-02 DXMaxT set to 3.00D-01
 ITU=  1  0
     Eigenvalues ---    0.00120   0.00439   0.00647   0.00744   0.00912
     Eigenvalues ---    0.01562   0.01628   0.02058   0.02145   0.02253
     Eigenvalues ---    0.02380   0.03106   0.04289   0.05299   0.05577
     Eigenvalues ---    0.05763   0.06022   0.07589   0.08165   0.09481
     Eigenvalues ---    0.12782   0.15967   0.15999   0.16000   0.16000
     Eigenvalues ---    0.16000   0.16000   0.16000   0.16000   0.16113
     Eigenvalues ---    0.21981   0.22862   0.23565   0.24884   0.25340
     Eigenvalues ---    0.29922   0.31362   0.34417   0.34517   0.34576
     Eigenvalues ---    0.34630   0.34670   0.34790   0.34799   0.34832
     Eigenvalues ---    0.35557   0.35848   0.36482   0.36487   0.43032
     Eigenvalues ---    0.46118   0.49316   0.55559   0.56210
 En-DIIS/RFO-DIIS IScMMF=        0 using points:     2    1
 RFO step:  Lambda=-1.64026777D-06.
 DidBck=F Rises=F RFO-DIIS coefs:    1.95866   -0.95866
 Iteration  1 RMS(Cart)=  0.03959295 RMS(Int)=  0.00226494
 Iteration  2 RMS(Cart)=  0.00325089 RMS(Int)=  0.00021270
 Iteration  3 RMS(Cart)=  0.00001724 RMS(Int)=  0.00021249
 Iteration  4 RMS(Cart)=  0.00000002 RMS(Int)=  0.00021249
 Variable       Old X    -DE/DX   Delta X   Delta X   Delta X     New X
                                 (Linear)    (Quad)   (Total)
    R1        2.57129   0.00001  -0.00002  -0.00011  -0.00012   2.57116
    R2        2.62037   0.00001   0.00001   0.00013   0.00015   2.62052
    R3        2.03335   0.00000   0.00000   0.00000   0.00000   2.03335
    R4        2.03327   0.00000   0.00000   0.00001   0.00001   2.03329
    R5        2.61722   0.00000   0.00002   0.00011   0.00013   2.61735
    R6        2.53036  -0.00003   0.00000  -0.00010  -0.00008   2.53028
    R7        2.12115  -0.00003   0.00001  -0.00012  -0.00003   2.12112
    R8        2.52675  -0.00003   0.00002   0.00001   0.00001   2.52676
    R9        2.78092   0.00001  -0.00002  -0.00008  -0.00009   2.78084
   R10        3.74288  -0.00005  -0.00009  -0.00226  -0.00238   3.74051
   R11        2.77646  -0.00002   0.00000  -0.00015  -0.00015   2.77631
   R12        2.88126  -0.00001   0.00000  -0.00003  -0.00003   2.88123
   R13        2.06214   0.00000   0.00000   0.00002   0.00002   2.06216
   R14        2.05988   0.00000   0.00001   0.00001  -0.00006   2.05982
   R15        2.06370   0.00000   0.00000   0.00000   0.00000   2.06370
   R16        2.06467   0.00000   0.00000   0.00001   0.00001   2.06468
   R17        2.06281   0.00000   0.00000   0.00001   0.00001   2.06282
   R18        2.05971  -0.00001   0.00000  -0.00008  -0.00008   2.05962
   R19        2.06012   0.00001   0.00000   0.00006   0.00006   2.06018
   R20        2.06667  -0.00002   0.00000  -0.00013  -0.00012   2.06654
    A1        1.86285   0.00001  -0.00001   0.00006   0.00006   1.86292
    A2        2.28580   0.00000   0.00001   0.00001   0.00001   2.28581
    A3        2.13451  -0.00001   0.00000  -0.00006  -0.00007   2.13445
    A4        2.28447   0.00001   0.00001   0.00013   0.00014   2.28461
    A5        1.86480  -0.00002  -0.00001  -0.00020  -0.00020   1.86459
    A6        2.13388   0.00001   0.00000   0.00009   0.00009   2.13397
    A7        2.26371   0.00002   0.00003   0.00040   0.00022   2.26393
    A8        1.88020   0.00002  -0.00005  -0.00021  -0.00022   1.87998
    A9        2.13894  -0.00004   0.00001  -0.00050  -0.00040   2.13855
   A10        1.90780  -0.00001   0.00003   0.00010   0.00010   1.90789
   A11        2.21111   0.00001  -0.00004  -0.00027  -0.00034   2.21077
   A12        2.16151   0.00000   0.00000  -0.00010  -0.00003   2.16148
   A13        1.90910   0.00001   0.00003   0.00024   0.00025   1.90935
   A14        2.21874   0.00005  -0.00005   0.00001  -0.00003   2.21871
   A15        2.15534  -0.00005   0.00003  -0.00025  -0.00021   2.15512
   A16        1.95208  -0.00002   0.00001  -0.00011  -0.00013   1.95195
   A17        1.87045   0.00000  -0.00002  -0.00008  -0.00009   1.87036
   A18        1.86269   0.00001  -0.00001   0.00003   0.00008   1.86277
   A19        1.95093   0.00001   0.00000   0.00024   0.00024   1.95117
   A20        1.93766  -0.00001   0.00003  -0.00008  -0.00011   1.93756
   A21        1.88588   0.00000  -0.00002   0.00000   0.00000   1.88588
   A22        1.91349   0.00000  -0.00001  -0.00010  -0.00011   1.91338
   A23        1.94214   0.00000   0.00000  -0.00006  -0.00007   1.94208
   A24        1.92800  -0.00001   0.00000  -0.00011  -0.00011   1.92789
   A25        1.89047   0.00000   0.00000   0.00004   0.00004   1.89051
   A26        1.88911   0.00001   0.00001   0.00011   0.00011   1.88922
   A27        1.89946   0.00001   0.00000   0.00014   0.00014   1.89960
   A28        1.90589   0.00001  -0.00002  -0.00016  -0.00018   1.90571
   A29        1.90954   0.00001  -0.00002   0.00021   0.00019   1.90973
   A30        1.87395   0.00000   0.00001   0.00002   0.00003   1.87399
   A31        1.92317   0.00000   0.00000   0.00004   0.00004   1.92321
   A32        1.92500  -0.00005   0.00002  -0.00099  -0.00097   1.92403
   A33        1.92551   0.00004   0.00000   0.00088   0.00089   1.92640
   A34        3.50494   0.00013  -0.00078   0.09949   0.09826   3.60320
   A35        3.13705   0.00000  -0.01420  -0.07010  -0.08317   3.05388
    D1       -3.12762  -0.00002   0.00001  -0.00137  -0.00138  -3.12900
    D2        0.00554   0.00001   0.00012   0.00189   0.00190   0.00744
    D3        0.00710  -0.00001  -0.00006  -0.00091  -0.00091   0.00619
    D4        3.14027   0.00003   0.00005   0.00236   0.00237  -3.14055
    D5       -0.00744   0.00000  -0.00013  -0.00085  -0.00087  -0.00831
    D6       -3.07111   0.00003   0.00002   0.00284   0.00290  -3.06822
    D7        3.14028  -0.00001  -0.00007  -0.00126  -0.00129   3.13900
    D8        0.07661   0.00002   0.00008   0.00243   0.00248   0.07909
    D9       -0.00184  -0.00003  -0.00006  -0.00233  -0.00232  -0.00415
   D10       -3.13884  -0.00005  -0.00010  -0.00497  -0.00493   3.13942
   D11        3.13222   0.00000   0.00004   0.00059   0.00062   3.13284
   D12       -0.00478  -0.00002   0.00000  -0.00205  -0.00200  -0.00678
   D13       -3.10744   0.00011   0.00062   0.01244   0.01250  -3.09495
   D14       -0.04108   0.00009   0.00047   0.00887   0.00884  -0.03224
   D15        0.00633  -0.00002   0.00009  -0.00059  -0.00056   0.00576
   D16        3.07269  -0.00004  -0.00005  -0.00417  -0.00422   3.06847
   D17       -3.02947   0.00017   0.01272   0.10137   0.11544  -2.91404
   D18       -0.00279   0.00003  -0.00002   0.00181   0.00178  -0.00101
   D19        3.13441   0.00005   0.00002   0.00433   0.00428   3.13869
   D20        3.11341  -0.00009  -0.00050  -0.01008  -0.01013   3.10328
   D21       -0.03258  -0.00007  -0.00046  -0.00755  -0.00762  -0.04020
   D22        1.51949   0.00000  -0.00001  -0.00062  -0.00061   1.51889
   D23       -0.62442  -0.00001   0.00000  -0.00080  -0.00076  -0.62519
   D24       -2.64139  -0.00002   0.00004  -0.00077  -0.00076  -2.64215
   D25       -1.53353   0.00002   0.00016   0.00357   0.00368  -1.52985
   D26        2.60574   0.00002   0.00017   0.00340   0.00352   2.60926
   D27        0.58877   0.00001   0.00020   0.00342   0.00352   0.59230
   D28       -1.00020   0.00001   0.00017   0.00593   0.00606  -0.99414
   D29        1.10596   0.00001   0.00015   0.00600   0.00612   1.11208
   D30       -3.08739   0.00006   0.00015   0.00719   0.00731  -3.08008
   D31        2.14659  -0.00002   0.00012   0.00294   0.00310   2.14969
   D32       -2.03044  -0.00001   0.00011   0.00302   0.00316  -2.02728
   D33        0.05940   0.00004   0.00010   0.00421   0.00435   0.06375
   D34       -3.13763   0.00000   0.00000  -0.00009  -0.00008  -3.13771
   D35       -1.04671   0.00000   0.00000  -0.00015  -0.00014  -1.04686
   D36        1.06516   0.00000   0.00000  -0.00009  -0.00009   1.06508
   D37       -1.04016   0.00000  -0.00002  -0.00010  -0.00012  -1.04028
   D38        1.05076   0.00000  -0.00002  -0.00016  -0.00018   1.05058
   D39       -3.12055   0.00000  -0.00003  -0.00010  -0.00013  -3.12067
   D40        1.06704   0.00000  -0.00002   0.00000  -0.00003   1.06701
   D41       -3.12522   0.00000  -0.00002  -0.00006  -0.00009  -3.12531
   D42       -1.01334   0.00000  -0.00002   0.00000  -0.00003  -1.01338
         Item               Value     Threshold  Converged?
 Maximum Force            0.000175     0.000450     YES
 RMS     Force            0.000035     0.000300     YES
 Maximum Displacement     0.260452     0.001800     NO 
 RMS     Displacement     0.041104     0.001200     NO 
 Predicted change in Energy=-1.954196D-05
 GradGradGradGradGradGradGradGradGradGradGradGradGradGradGradGradGradGrad

                          Input orientation:                          
 ---------------------------------------------------------------------
 Center     Atomic      Atomic             Coordinates (Angstroms)
 Number     Number       Type             X           Y           Z
 ---------------------------------------------------------------------
      1          6           0       -0.328764    1.806086   -0.203260
      2          6           0       -1.656635    1.656697    0.053011
      3          6           0       -0.779272   -0.371198   -0.179817
      4          7           0        0.195397    0.530774   -0.350985
      5          1           0        0.276479    2.690788   -0.296873
      6          1           0       -2.428437    2.387536    0.220059
      7          1           0       -0.727757   -1.492454   -0.184714
      8          7           0       -1.911993    0.295462    0.065849
      9          6           0        1.610145    0.180164   -0.553567
     10          6           0        2.351738    0.027426    0.769824
     11          1           0        2.049471    0.961135   -1.176383
     12          1           0        1.624614   -0.751301   -1.119502
     13          1           0        3.395960   -0.228173    0.577813
     14          1           0        2.325765    0.954114    1.348023
     15          1           0        1.908131   -0.772394    1.365711
     16          6           0       -3.204061   -0.362088    0.303800
     17          1           0       -3.595162   -0.044274    1.270201
     18          1           0       -3.899878   -0.092273   -0.490916
     19          1           0       -3.026161   -1.441088    0.303995
     20         17           0       -1.419046   -3.294590    0.253939
 ---------------------------------------------------------------------
                    Distance matrix (angstroms):
                    1          2          3          4          5
     1  C    0.000000
     2  C    1.360600   0.000000
     3  C    2.223527   2.221786   0.000000
     4  N    1.386718   2.204753   1.338967   0.000000
     5  H    1.076002   2.220066   3.240999   2.162213   0.000000
     6  H    2.219440   1.075969   3.238867   3.264684   2.770515
     7  H    3.322635   3.291881   1.122449   2.230092   4.303555
     8  N    2.204773   1.385040   1.337103   2.161068   3.264747
     9  C    2.554546   3.635923   2.480524   1.471557   2.854433
    10  C    3.360895   4.385818   3.296049   2.481810   3.540910
    11  H    2.704979   3.966161   3.281774   2.074628   2.628447
    12  H    3.345955   4.235544   2.608860   2.068090   3.787105
    13  H    4.315305   5.418198   4.245823   3.417933   4.360800
    14  H    3.190432   4.246197   3.705671   2.757591   3.149809
    15  H    3.756851   4.509015   3.125979   2.752952   4.173740
    16  C    3.636677   2.555957   2.472564   3.575229   4.668514
    17  H    4.032899   2.851796   3.184127   4.162602   4.992584
    18  H    4.054549   2.896014   3.148454   4.144761   5.022454
    19  H    4.251753   3.396302   2.535202   3.833494   5.323615
    20  Cl   5.235899   4.961054   3.023851   4.195923   6.245234
                    6          7          8          9         10
     6  H    0.000000
     7  H    4.255640   0.000000
     8  N    2.160386   2.159129   0.000000
     9  C    4.667026   2.898187   3.578048   0.000000
    10  C    5.359332   3.564333   4.329761   1.524681   0.000000
    11  H    4.902686   3.836209   4.204695   1.091248   2.179656
    12  H    5.298486   2.637572   3.874063   1.090009   2.169027
    13  H    6.394805   4.380056   5.358234   2.153113   1.092061
    14  H    5.092096   4.202258   4.476202   2.174201   1.092583
    15  H    5.486665   3.141689   4.174123   2.163282   1.091595
    16  C    2.858152   2.765584   1.469160   4.919928   5.588900
    17  H    2.894433   3.526473   2.097365   5.520120   5.968345
    18  H    2.969861   3.480893   2.100479   5.517110   6.378597
    19  H    3.875910   2.350349   2.076942   4.985901   5.594223
    20  Cl   5.771184   1.979392   3.628614   4.679955   5.051806
                   11         12         13         14         15
    11  H    0.000000
    12  H    1.765270   0.000000
    13  H    2.510915   2.508427   0.000000
    14  H    2.539491   3.080378   1.770972   0.000000
    15  H    3.080153   2.501422   1.769348   1.776389   0.000000
    16  C    5.616178   5.049097   6.607064   5.779426   5.237415
    17  H    6.233658   5.784170   7.027731   6.005015   5.552073
    18  H    6.080648   5.599058   7.374951   6.575352   6.135356
    19  H    5.807257   4.912419   6.541390   5.955678   5.091329
    20  Cl   5.673414   4.197443   5.717700   5.768198   4.320604
                   16         17         18         19         20
    16  C    0.000000
    17  H    1.089906   0.000000
    18  H    1.090200   1.787929   0.000000
    19  H    1.093567   1.791201   1.792921   0.000000
    20  Cl   3.433414   4.041388   4.118757   2.453730   0.000000
 Stoichiometry    C6H11ClN2
 Framework group  C1[X(C6H11ClN2)]
 Deg. of freedom    54
 Full point group                 C1      NOp   1
 Largest Abelian subgroup         C1      NOp   1
 Largest concise Abelian subgroup C1      NOp   1
                         Standard orientation:                         
 ---------------------------------------------------------------------
 Center     Atomic      Atomic             Coordinates (Angstroms)
 Number     Number       Type             X           Y           Z
 ---------------------------------------------------------------------
      1          6           0        1.817378    1.297078   -0.106044
      2          6           0        0.778674    2.142314    0.134586
      3          6           0       -0.065516    0.122662   -0.245784
      4          7           0        1.267501    0.046982   -0.346631
      5          1           0        2.878592    1.472969   -0.131900
      6          1           0        0.763764    3.195721    0.353263
      7          1           0       -0.838505   -0.686427   -0.333853
      8          7           0       -0.380254    1.389133    0.045483
      9          6           0        2.002508   -1.208035   -0.570631
     10          6           0        2.330476   -1.914893    0.739881
     11          1           0        2.903865   -0.957478   -1.132412
     12          1           0        1.372134   -1.832021   -1.204185
     13          1           0        2.877648   -2.836933    0.532416
     14          1           0        2.948777   -1.286478    1.385276
     15          1           0        1.414067   -2.174005    1.273394
     16          6           0       -1.759785    1.859465    0.230179
     17          1           0       -1.854397    2.313690    1.216395
     18          1           0       -2.001177    2.587794   -0.544290
     19          1           0       -2.415330    0.987781    0.150693
     20         17           0       -2.640151   -1.448762   -0.032346
 ---------------------------------------------------------------------
 Rotational constants (GHZ):      1.4762230      0.9288103      0.6007314
 Standard basis: 6-311+G(d,p) (5D, 7F)
 There are   281 symmetry adapted cartesian basis functions of A   symmetry.
 There are   272 symmetry adapted basis functions of A   symmetry.
   272 basis functions,   429 primitive gaussians,   281 cartesian basis functions
    39 alpha electrons       39 beta electrons
       nuclear repulsion energy       514.9927353867 Hartrees.
 NAtoms=   20 NActive=   20 NUniq=   20 SFac= 1.00D+00 NAtFMM=   60 NAOKFM=F Big=F
 Integral buffers will be    131072 words long.
 Raffenetti 2 integral format.
 Two-electron integral symmetry is turned on.
 Nuclear repulsion after empirical dispersion term =      514.9608609532 Hartrees.
 One-electron integrals computed using PRISM.
 NBasis=   272 RedAO= T EigKep=  1.82D-05  NBF=   272
 NBsUse=   272 1.00D-06 EigRej= -1.00D+00 NBFU=   272
 Initial guess from the checkpoint file:  "CJS1_emim-cl_F_6-311+g-d-p-_gd3bj_opt-modredundant_unfrz.chk"
 B after Tr=     0.000000    0.000000    0.000000
         Rot=    0.999777   -0.002803    0.001947   -0.020859 Ang=  -2.42 deg.
 ExpMin= 4.38D-02 ExpMax= 1.06D+05 ExpMxC= 3.62D+03 IAcc=2 IRadAn=         4 AccDes= 0.00D+00
 Harris functional with IExCor=  402 and IRadAn=       4 diagonalized for initial guess.
 HarFok:  IExCor=  402 AccDes= 0.00D+00 IRadAn=         4 IDoV= 1 UseB2=F ITyADJ=14
 ICtDFT=  3500011 ScaDFX=  1.000000  1.000000  1.000000  1.000000
 FoFCou: FMM=F IPFlag=           0 FMFlag=      100000 FMFlg1=           0
         NFxFlg=           0 DoJE=T BraDBF=F KetDBF=T FulRan=T
         wScrn=  0.000000 ICntrl=     500 IOpCl=  0 I1Cent=   200000004 NGrid=           0
         NMat0=    1 NMatS0=      1 NMatT0=    0 NMatD0=    1 NMtDS0=    0 NMtDT0=    0
 Petite list used in FoFCou.
 Keep R1 ints in memory in canonical form, NReq=700735283.
 Requested convergence on RMS density matrix=1.00D-09 within 128 cycles.
 Requested convergence on MAX density matrix=1.00D-07.
 Requested convergence on             energy=1.00D-07.
 No special actions if energy rises.
 SCF Done:  E(RB3LYP) =  -805.116551095     A.U. after   13 cycles
            NFock= 13  Conv=0.42D-09     -V/T= 2.0033
 Calling FoFJK, ICntrl=      2127 FMM=F ISym2X=0 I1Cent= 0 IOpClX= 0 NMat=1 NMatS=1 NMatT=0.
 ***** Axes restored to original set *****
 -------------------------------------------------------------------
 Center     Atomic                   Forces (Hartrees/Bohr)
 Number     Number              X              Y              Z
 -------------------------------------------------------------------
      1        6           0.000266496    0.000207186    0.000079983
      2        6           0.000339590   -0.000576121    0.000305765
      3        6           0.000645054   -0.000418698   -0.001708209
      4        7           0.000501988    0.000492672   -0.000034030
      5        1           0.000013377   -0.000002533   -0.000002123
      6        1          -0.000020257   -0.000096838    0.000003237
      7        1          -0.000835999    0.002212258    0.001223992
[...]
    19  H    4.248866   3.397367   2.528972   3.828651   5.320944
    20  Cl   5.279039   5.080305   3.060105   4.179195   6.269983
                    6          7          8          9         10
     6  H    0.000000
     7  H    4.254844   0.000000
     8  N    2.160930   2.157341   0.000000
     9  C    4.672082   2.913581   3.587639   0.000000
    10  C    5.681058   2.830236   4.205191   1.522964   0.000000
    11  H    4.857771   3.885062   4.204887   1.091269   2.172604
    12  H    5.088320   3.273553   4.020914   1.092699   2.169916
    13  H    6.652449   3.835225   5.261304   2.141744   1.091882
    14  H    5.647788   3.078871   4.253680   2.167758   1.092077
    15  H    5.844251   2.237490   4.061522   2.182538   1.092482
    16  C    2.863743   2.756712   1.468487   4.927611   5.314877
    17  H    2.948947   3.489195   2.100171   5.530860   5.847719
    18  H    2.932710   3.502578   2.099131   5.525274   6.083126
    19  H    3.880940   2.338297   2.076525   4.992176   5.105799
    20  Cl   5.926435   1.968191   3.767742   4.589095   4.015339
                   11         12         13         14         15
    11  H    0.000000
    12  H    1.766795   0.000000
    13  H    2.498728   2.487213   0.000000
    14  H    2.514680   3.078060   1.771646   0.000000
    15  H    3.090044   2.539046   1.770052   1.769674   0.000000
    16  C    5.624551   5.306933   6.386511   5.304242   4.949907
    17  H    6.109448   6.060667   6.938818   5.642108   5.571700
    18  H    6.218856   5.737951   7.122738   6.196685   5.700493
    19  H    5.827096   5.332621   6.147615   5.132051   4.541954
    20  Cl   5.612666   4.800657   4.804350   4.229511   3.041965
                   16         17         18         19         20
    16  C    0.000000
    17  H    1.090120   0.000000
    18  H    1.090010   1.787571   0.000000
    19  H    1.092789   1.790295   1.790126   0.000000
    20  Cl   3.654075   4.305943   4.307961   2.697536   0.000000
 Stoichiometry    C6H11ClN2
 Framework group  C1[X(C6H11ClN2)]
 Deg. of freedom    54
 Full point group                 C1      NOp   1
 Largest Abelian subgroup         C1      NOp   1
 Largest concise Abelian subgroup C1      NOp   1
                         Standard orientation:                         
 ---------------------------------------------------------------------
 Center     Atomic      Atomic             Coordinates (Angstroms)
 Number     Number       Type             X           Y           Z
 ---------------------------------------------------------------------
      1          6           0        2.327727    0.420335   -0.065146
      2          6           0        1.775206    1.659250    0.044475
      3          6           0        0.119099    0.181472   -0.054084
      4          7           0        1.278408   -0.484578   -0.121307
      5          1           0        3.356907    0.108917   -0.102679
      6          1           0        2.232402    2.629884    0.125572
      7          1           0       -0.933650   -0.205091   -0.081146
      8          7           0        0.401741    1.484313    0.048330
      9          6           0        1.392128   -1.946174   -0.301020
     10          6           0        0.294948   -2.701488    0.437300
     11          1           0        2.381701   -2.225210    0.064700
     12          1           0        1.357783   -2.153345   -1.373351
     13          1           0        0.430350   -3.772178    0.271482
     14          1           0        0.344457   -2.509488    1.511226
     15          1           0       -0.701850   -2.424215    0.086545
     16          6           0       -0.629274    2.524709    0.153397
     17          1           0       -0.518306    3.051190    1.101482
     18          1           0       -0.525241    3.222029   -0.677893
     19          1           0       -1.601500    2.027691    0.109364
     20         17           0       -2.897829   -0.328056   -0.106705
 ---------------------------------------------------------------------
 Rotational constants (GHZ):      1.4043398      1.0307122      0.6093605

 **********************************************************************

            Population analysis using the SCF density.

 **********************************************************************

 Orbital symmetries:
       Occupied  (A) (A) (A) (A) (A) (A) (A) (A) (A) (A) (A) (A)
                 (A) (A) (A) (A) (A) (A) (A) (A) (A) (A) (A) (A)
                 (A) (A) (A) (A) (A) (A) (A) (A) (A) (A) (A) (A)
                 (A) (A) (A)
       Virtual   (A) (A) (A) (A) (A) (A) (A) (A) (A) (A) (A) (A)
                 (A) (A) (A) (A) (A) (A) (A) (A) (A) (A) (A) (A)
                 (A) (A) (A) (A) (A) (A) (A) (A) (A) (A) (A) (A)
                 (A) (A) (A) (A) (A) (A) (A) (A) (A) (A) (A) (A)
                 (A) (A) (A) (A) (A) (A) (A) (A) (A) (A) (A) (A)
                 (A) (A) (A) (A) (A) (A) (A) (A) (A) (A) (A) (A)
                 (A) (A) (A) (A) (A) (A) (A) (A) (A) (A) (A) (A)
                 (A) (A) (A) (A) (A) (A) (A) (A) (A) (A) (A) (A)
                 (A) (A) (A) (A) (A) (A) (A) (A) (A) (A) (A) (A)
                 (A) (A) (A) (A) (A) (A) (A) (A) (A) (A) (A) (A)
                 (A) (A) (A) (A) (A) (A) (A) (A) (A) (A) (A) (A)
                 (A) (A) (A) (A) (A) (A) (A) (A) (A) (A) (A) (A)
                 (A) (A) (A) (A) (A) (A) (A) (A) (A) (A) (A) (A)
                 (A) (A) (A) (A) (A) (A) (A) (A) (A) (A) (A) (A)
                 (A) (A) (A) (A) (A) (A) (A) (A) (A) (A) (A) (A)
                 (A) (A) (A) (A) (A) (A) (A) (A) (A) (A) (A) (A)
                 (A) (A) (A) (A) (A) (A) (A) (A) (A) (A) (A) (A)
                 (A) (A) (A) (A) (A) (A) (A) (A) (A) (A) (A) (A)
                 (A) (A) (A) (A) (A) (A) (A) (A) (A) (A) (A) (A)
                 (A) (A) (A) (A) (A)
 The electronic state is 1-A.
 Alpha  occ. eigenvalues -- -101.39532 -14.43106 -14.43062 -10.27544 -10.26184
 Alpha  occ. eigenvalues --  -10.26020 -10.25721 -10.23483 -10.18623  -9.30938
 Alpha  occ. eigenvalues --   -7.06798  -7.06742  -7.06724  -1.10119  -0.98403
 Alpha  occ. eigenvalues --   -0.84119  -0.80257  -0.76094  -0.68860  -0.67144
 Alpha  occ. eigenvalues --   -0.66248  -0.62540  -0.58354  -0.53577  -0.51352
 Alpha  occ. eigenvalues --   -0.50407  -0.49760  -0.48616  -0.47790  -0.44917
 Alpha  occ. eigenvalues --   -0.42932  -0.41904  -0.40682  -0.38887  -0.33755
 Alpha  occ. eigenvalues --   -0.30125  -0.20207  -0.19867  -0.19600
 Alpha virt. eigenvalues --   -0.04310  -0.03576  -0.02314  -0.00893   0.00227
 Alpha virt. eigenvalues --    0.01680   0.02048   0.02571   0.03422   0.04113
 Alpha virt. eigenvalues --    0.05227   0.05609   0.06509   0.07489   0.07620
 Alpha virt. eigenvalues --    0.08323   0.09076   0.09781   0.10312   0.11325
 Alpha virt. eigenvalues --    0.12110   0.12563   0.13028   0.13378   0.14218
 Alpha virt. eigenvalues --    0.14620   0.15013   0.15515   0.15577   0.16201
 Alpha virt. eigenvalues --    0.16491   0.17157   0.17416   0.17610   0.18455
 Alpha virt. eigenvalues --    0.18694   0.19054   0.19988   0.21209   0.21831
 Alpha virt. eigenvalues --    0.22059   0.22604   0.23213   0.23638   0.24959
 Alpha virt. eigenvalues --    0.26042   0.26448   0.26831   0.27668   0.28651
 Alpha virt. eigenvalues --    0.30060   0.32173   0.33510   0.35808   0.36884
 Alpha virt. eigenvalues --    0.38516   0.39457   0.40859   0.41252   0.43128
 Alpha virt. eigenvalues --    0.44838   0.47382   0.48059   0.50754   0.50886
 Alpha virt. eigenvalues --    0.52717   0.53265   0.53767   0.53952   0.56950
 Alpha virt. eigenvalues --    0.57565   0.58677   0.59160   0.59748   0.60449
 Alpha virt. eigenvalues --    0.61603   0.62774   0.64144   0.64593   0.66232
 Alpha virt. eigenvalues --    0.66584   0.67686   0.69008   0.70165   0.70920
 Alpha virt. eigenvalues --    0.73910   0.74307   0.76171   0.76828   0.80757
 Alpha virt. eigenvalues --    0.82221   0.84442   0.86384   0.90239   0.91868
 Alpha virt. eigenvalues --    0.93229   0.93917   0.96485   0.97958   1.00122
 Alpha virt. eigenvalues --    1.00780   1.01087   1.02167   1.03278   1.04244
 Alpha virt. eigenvalues --    1.04823   1.05951   1.11257   1.11419   1.14297
 Alpha virt. eigenvalues --    1.18503   1.22313   1.24830   1.26996   1.30036
 Alpha virt. eigenvalues --    1.30648   1.37417   1.39111   1.41473   1.42448
 Alpha virt. eigenvalues --    1.45051   1.47314   1.49870   1.51093   1.51945
 Alpha virt. eigenvalues --    1.52582   1.53055   1.55204   1.55583   1.57720
 Alpha virt. eigenvalues --    1.58514   1.60113   1.60980   1.63205   1.64418
 Alpha virt. eigenvalues --    1.67227   1.68337   1.69325   1.70812   1.74766
 Alpha virt. eigenvalues --    1.76870   1.78582   1.78731   1.80618   1.83122
 Alpha virt. eigenvalues --    1.86201   1.87581   1.93830   1.94996   2.01104
 Alpha virt. eigenvalues --    2.02291   2.04394   2.07237   2.09014   2.11017
 Alpha virt. eigenvalues --    2.13456   2.16333   2.18213   2.19517   2.23531
 Alpha virt. eigenvalues --    2.28488   2.31190   2.36563   2.37875   2.40449
 Alpha virt. eigenvalues --    2.41833   2.42297   2.44160   2.44936   2.46368
 Alpha virt. eigenvalues --    2.48275   2.49075   2.50851   2.52309   2.52718
 Alpha virt. eigenvalues --    2.54484   2.55906   2.57180   2.60163   2.61282
 Alpha virt. eigenvalues --    2.61766   2.63336   2.63737   2.66399   2.70355
 Alpha virt. eigenvalues --    2.71187   2.73141   2.74630   2.75540   2.79528
 Alpha virt. eigenvalues --    2.82266   2.85657   2.88865   2.92689   2.94571
 Alpha virt. eigenvalues --    2.95629   2.97747   3.08703   3.18800   3.24341
 Alpha virt. eigenvalues --    3.36301   3.55895   3.57386   3.62287   3.66469
 Alpha virt. eigenvalues --    3.70870   3.71943   3.74223   3.79377   3.80555
 Alpha virt. eigenvalues --    3.82549   3.88408   3.89718   3.90327   4.06795
 Alpha virt. eigenvalues --    4.18007   4.69447   4.90201   4.92086   5.23560
 Alpha virt. eigenvalues --    9.86476  23.70930  23.81544  23.86088  23.89639
 Alpha virt. eigenvalues --   23.95436  24.13794  25.93302  26.06963  26.23742
 Alpha virt. eigenvalues --   35.42576  35.57597 215.85458
          Condensed to atoms (all electrons):
               1          2          3          4          5          6
     1  C    5.551059   0.186775  -0.215347   0.199265   0.448800  -0.080218
     2  C    0.186775   5.531783   0.010053   0.019768  -0.053885   0.474293
     3  C   -0.215347   0.010053   5.753408   0.283607   0.018727   0.017258
     4  N    0.199265   0.019768   0.283607   6.791738  -0.064076   0.025828
     5  H    0.448800  -0.053885   0.018727  -0.064076   0.488896  -0.002259
     6  H   -0.080218   0.474293   0.017258   0.025828  -0.002259   0.487236
     7  H   -0.067509  -0.005498   0.209536  -0.043668   0.000235   0.000276
     8  N    0.106819   0.172300   0.453727  -0.205625   0.018529  -0.068390
     9  C   -0.083349  -0.018513  -0.080131   0.156665  -0.009706   0.000535
    10  C   -0.016318  -0.022184  -0.072869  -0.084376   0.001635   0.000343
    11  H    0.010724   0.021644   0.005622  -0.071467   0.001608   0.000027
    12  H   -0.005003  -0.006902  -0.026531  -0.024162   0.000074   0.000005
    13  H   -0.001058   0.002945   0.009937   0.016049  -0.000038  -0.000001
    14  H    0.007708  -0.003448  -0.038316   0.018222   0.000065  -0.000002
    15  H    0.003929  -0.002551   0.020892  -0.029572   0.000000   0.000002
    16  C   -0.038474  -0.112665  -0.132542  -0.033449   0.000626  -0.006544
    17  H   -0.001434   0.006617  -0.016443  -0.001933  -0.000002   0.000007
    18  H    0.008740  -0.002580  -0.008553  -0.003692   0.000007  -0.000003
    19  H   -0.002633   0.007387   0.026423   0.015457   0.000018   0.000042
    20  Cl  -0.022007  -0.001412  -0.076669  -0.000936   0.000083   0.000079
               7          8          9         10         11         12
     1  C   -0.067509   0.106819  -0.083349  -0.016318   0.010724  -0.005003
     2  C   -0.005498   0.172300  -0.018513  -0.022184   0.021644  -0.006902
     3  C    0.209536   0.453727  -0.080131  -0.072869   0.005622  -0.026531
     4  N   -0.043668  -0.205625   0.156665  -0.084376  -0.071467  -0.024162
     5  H    0.000235   0.018529  -0.009706   0.001635   0.001608   0.000074
     6  H    0.000276  -0.068390   0.000535   0.000343   0.000027   0.000005
     7  H    0.618147  -0.084845   0.008995   0.012465  -0.000200  -0.000349
     8  N   -0.084845   6.587336  -0.006337  -0.008449  -0.001736  -0.000908
     9  C    0.008995  -0.006337   5.431226   0.020033   0.406394   0.457451
    10  C    0.012465  -0.008449   0.020033   5.439080  -0.040743  -0.038707
    11  H   -0.000200  -0.001736   0.406394  -0.040743   0.562328  -0.035998
    12  H   -0.000349  -0.000908   0.457451  -0.038707  -0.035998   0.496268
    13  H    0.000088  -0.000616  -0.041793   0.390694  -0.004631  -0.003804
    14  H   -0.001546  -0.001949  -0.032511   0.432241  -0.007736   0.005791
    15  H   -0.000460   0.005270  -0.027601   0.401625   0.005970  -0.005000
    16  C    0.011711   0.245479  -0.021743  -0.000446   0.000744  -0.001790
    17  H   -0.000441  -0.033909  -0.000604   0.000162  -0.000003   0.000007
    18  H    0.000101  -0.038278   0.000668  -0.000392  -0.000003  -0.000012
    19  H   -0.004371  -0.042004   0.002025   0.001217   0.000007  -0.000005
    20  Cl   0.217906  -0.047225  -0.001517   0.019357  -0.000123   0.000240
              13         14         15         16         17         18
     1  C   -0.001058   0.007708   0.003929  -0.038474  -0.001434   0.008740
     2  C    0.002945  -0.003448  -0.002551  -0.112665   0.006617  -0.002580
     3  C    0.009937  -0.038316   0.020892  -0.132542  -0.016443  -0.008553
     4  N    0.016049   0.018222  -0.029572  -0.033449  -0.001933  -0.003692
     5  H   -0.000038   0.000065   0.000000   0.000626  -0.000002   0.000007
     6  H   -0.000001  -0.000002   0.000002  -0.006544   0.000007  -0.000003
     7  H    0.000088  -0.001546  -0.000460   0.011711  -0.000441   0.000101
     8  N   -0.000616  -0.001949   0.005270   0.245479  -0.033909  -0.038278
     9  C   -0.041793  -0.032511  -0.027601  -0.021743  -0.000604   0.000668
    10  C    0.390694   0.432241   0.401625  -0.000446   0.000162  -0.000392
    11  H   -0.004631  -0.007736   0.005970   0.000744  -0.000003  -0.000003
    12  H   -0.003804   0.005791  -0.005000  -0.001790   0.000007  -0.000012
    13  H    0.526504  -0.025458  -0.018306   0.000042   0.000000   0.000000
    14  H   -0.025458   0.516956  -0.021767  -0.001992   0.000006   0.000001
    15  H   -0.018306  -0.021767   0.446081   0.002486  -0.000008   0.000001
    16  C    0.000042  -0.001992   0.002486   5.175974   0.409984   0.402633
    17  H    0.000000   0.000006  -0.000008   0.409984   0.521982  -0.040038
    18  H    0.000000   0.000001   0.000001   0.402633  -0.040038   0.528273
    19  H    0.000000   0.000006  -0.000092   0.358743  -0.015711  -0.015199
    20  Cl  -0.000128  -0.001039   0.005801  -0.035126   0.000876   0.000652
              19         20
     1  C   -0.002633  -0.022007
     2  C    0.007387  -0.001412
     3  C    0.026423  -0.076669
     4  N    0.015457  -0.000936
     5  H    0.000018   0.000083
     6  H    0.000042   0.000079
     7  H   -0.004371   0.217906
     8  N   -0.042004  -0.047225
     9  C    0.002025  -0.001517
    10  C    0.001217   0.019357
    11  H    0.000007  -0.000123
    12  H   -0.000005   0.000240
    13  H    0.000000  -0.000128
    14  H    0.000006  -0.001039
    15  H   -0.000092   0.005801
    16  C    0.358743  -0.035126
    17  H   -0.015711   0.000876
    18  H   -0.015199   0.000652
    19  H    0.408426   0.034820
    20  Cl   0.034820  17.589264
 Mulliken charges:
               1
     1  C    0.009529
     2  C   -0.203925
     3  C   -0.141790
     4  N    0.036359
     5  H    0.150665
     6  H    0.151485
     7  H    0.129428
     8  N   -0.049191
     9  C   -0.160188
    10  C   -0.434365
    11  H    0.147570
    12  H    0.189333
    13  H    0.149574
    14  H    0.154768
    15  H    0.213299
    16  C   -0.223654
    17  H    0.170883
    18  H    0.167673
    19  H    0.225443
    20  Cl  -0.682895
 Sum of Mulliken charges =   0.00000
 Mulliken charges with hydrogens summed into heavy atoms:
               1
     1  C    0.160194
     2  C   -0.052441
     3  C   -0.012362
     4  N    0.036359
     8  N   -0.049191
     9  C    0.176715
    10  C    0.083276
    16  C    0.340345
    20  Cl  -0.682895
 Electronic spatial extent (au):  <R**2>=           1812.3747
 Charge=              0.0000 electrons
 Dipole moment (field-independent basis, Debye):
    X=             12.1712    Y=              2.2635    Z=              0.2816  Tot=             12.3831
 Quadrupole moment (field-independent basis, Debye-Ang):
   XX=            -84.8875   YY=            -47.7772   ZZ=            -65.4517
   XY=             -5.6754   XZ=             -1.6436   YZ=              1.0866
 Traceless Quadrupole moment (field-independent basis, Debye-Ang):
   XX=            -18.8487   YY=             18.2616   ZZ=              0.5871
   XY=             -5.6754   XZ=             -1.6436   YZ=              1.0866
 Octapole moment (field-independent basis, Debye-Ang**2):
  XXX=            127.0747  YYY=             16.6309  ZZZ=              0.6013  XYY=             13.8229
  XXY=             13.6137  XXZ=              2.7282  XZZ=              3.6288  YZZ=             -0.2146
  YYZ=              0.9955  XYZ=              1.5424
 Hexadecapole moment (field-independent basis, Debye-Ang**3):
 XXXX=          -1521.9446 YYYY=           -936.8539 ZZZZ=           -110.8587 XXXY=            -34.7508
 XXXZ=            -11.7718 YYYX=            -10.4060 YYYZ=              7.2036 ZZZX=             -3.5232
 ZZZY=              3.2258 XXYY=           -379.3058 XXZZ=           -260.4515 YYZZ=           -191.4496
 XXYZ=              2.1032 YYXZ=             -1.5483 ZZXY=             -8.6151
 N-N= 5.171193942802D+02 E-N=-2.928721455252D+03  KE= 8.024488932099D+02
 1\1\GINC-CX1-9-16-2\FOpt\RB3LYP\6-311+G(d,p)\C6H11Cl1N2\CJS14\17-Apr-2
 015\0\\# opt=modredundant b3lyp/6-311+g(d,p) geom=checkpoint integral=
 grid=ultrafine scf=conver=9 empiricaldispersion=gd3bj\\Emim+ (optimise
 d with b3lyp+gd3bj / aug-cc-pvtz) and Cl- in the front position create
 d on; Thu Apr 16 19:11:59 BST 2015, from; CJS1_emim-cl_F_init.com crea
 ted on; Fri Apr 17 20:54:17 BST 2015, from; CJS1_emim-cl_F_6-311+g-d-p
 -_gd3bj_opt-modredundant_difrz.com\\0,1\C,-0.4554378524,1.9330544864,-
 0.505844945\C,-1.7814012224,1.7002097089,-0.3063238643\C,-0.6911790879
 ,-0.1964550265,0.0813756662\N,0.2047476866,0.7395307073,-0.2553486387\
 H,0.0668673799,2.828376291,-0.7942858713\H,-2.631188034,2.3557123448,-
 0.3832240179\H,-0.537660432,-1.2770301498,0.3406700322\N,-1.9022629826
 ,0.3696289383,0.0569550683\C,1.653834887,0.4938309078,-0.4011893888\C,
 2.1712897996,-0.5075338324,0.6229828047\H,2.1429892065,1.4631207205,-0
 .2913089407\H,1.8305892174,0.1400830549,-1.4198219644\H,3.2433016924,-
 0.6472610431,0.4697707283\H,2.012606803,-0.1422560633,1.6398521556\H,1
 .6825792399,-1.4801261475,0.5294772913\C,-3.1360221018,-0.3571322389,0
 .3827000724\H,-3.6105924702,0.1035760977,1.2492402382\H,-3.8094384834,
 -0.3283677701,-0.4739244042\H,-2.8577674247,-1.3893382126,0.6092254073
 \Cl,-0.8353218109,-3.1612729734,0.8252325109\\Version=ES64L-G09RevD.01
 \State=1-A\HF=-805.1175208\RMSD=6.577e-10\RMSF=2.320e-05\Dipole=0.1493
 264,4.7300296,-1.1575\Quadrupole=14.0435213,-14.0077967,-0.0357246,-2.
 1755348,-0.7434998,2.8978929\PG=C01 [X(C6H11Cl1N2)]\\@


 "PERFECTION IS NOT AN ACCIDENT"
         --  EAGLE ELECTRIC MANUFACTURING CO.,INC. NY
 Job cpu time:       0 days  4 hours 57 minutes 36.9 seconds.
 File lengths (MBytes):  RWF=     35 Int=      0 D2E=      0 Chk=      6 Scr=      1
 Normal termination of Gaussian 09 at Fri Apr 17 21:44:27 2015.
