 Entering Gaussian System, Link 0=g09
 Input=/work/cjs14/CJS1_emim-cl_B_6-311+g-d-p-_gd3bj_opt-modredundant_difrz.com
 Output=/work/cjs14/CJS1_emim-cl_B_6-311+g-d-p-_gd3bj_opt-modredundant_difrz.log
 Initial command:
 /apps/gaussian/g09_d01/g09/l1.exe /tmp/pbs.9389532.cx1b/Gau-25388.inp -scrdir=/tmp/pbs.9389532.cx1b/
 Entering Link 1 = /apps/gaussian/g09_d01/g09/l1.exe PID=     25389.
  
 Copyright (c) 1988,1990,1992,1993,1995,1998,2003,2009,2013,
            Gaussian, Inc.  All Rights Reserved.
  
 This is part of the Gaussian(R) 09 program.  It is based on
 the Gaussian(R) 03 system (copyright 2003, Gaussian, Inc.),
 the Gaussian(R) 98 system (copyright 1998, Gaussian, Inc.),
 the Gaussian(R) 94 system (copyright 1995, Gaussian, Inc.),
 the Gaussian 92(TM) system (copyright 1992, Gaussian, Inc.),
 the Gaussian 90(TM) system (copyright 1990, Gaussian, Inc.),
 the Gaussian 88(TM) system (copyright 1988, Gaussian, Inc.),
 the Gaussian 86(TM) system (copyright 1986, Carnegie Mellon
 University), and the Gaussian 82(TM) system (copyright 1983,
 Carnegie Mellon University). Gaussian is a federally registered
 trademark of Gaussian, Inc.
  
 This software contains proprietary and confidential information,
 including trade secrets, belonging to Gaussian, Inc.
  
 This software is provided under written license and may be
 used, copied, transmitted, or stored only in accord with that
 written license.
  
 The following legend is applicable only to US Government
 contracts under FAR:
  
                    RESTRICTED RIGHTS LEGEND
  
 Use, reproduction and disclosure by the US Government is
 subject to restrictions as set forth in subparagraphs (a)
 and (c) of the Commercial Computer Software - Restricted
 Rights clause in FAR 52.227-19.
  
 Gaussian, Inc.
 340 Quinnipiac St., Bldg. 40, Wallingford CT 06492
  
  
 ---------------------------------------------------------------
 Warning -- This program may not be used in any manner that
 competes with the business of Gaussian, Inc. or will provide
 assistance to any competitor of Gaussian, Inc.  The licensee
 of this program is prohibited from giving any competitor of
 Gaussian, Inc. access to this program.  By using this program,
 the user acknowledges that Gaussian, Inc. is engaged in the
 business of creating and licensing software in the field of
 computational chemistry and represents and warrants to the
 licensee that it is not a competitor of Gaussian, Inc. and that
 it will not use this program in any manner prohibited above.
 ---------------------------------------------------------------
  

 Cite this work as:
 Gaussian 09, Revision D.01,
 M. J. Frisch, G. W. Trucks, H. B. Schlegel, G. E. Scuseria, 
 M. A. Robb, J. R. Cheeseman, G. Scalmani, V. Barone, B. Mennucci, 
 G. A. Petersson, H. Nakatsuji, M. Caricato, X. Li, H. P. Hratchian, 
 A. F. Izmaylov, J. Bloino, G. Zheng, J. L. Sonnenberg, M. Hada, 
 M. Ehara, K. Toyota, R. Fukuda, J. Hasegawa, M. Ishida, T. Nakajima, 
 Y. Honda, O. Kitao, H. Nakai, T. Vreven, J. A. Montgomery, Jr., 
 J. E. Peralta, F. Ogliaro, M. Bearpark, J. J. Heyd, E. Brothers, 
 K. N. Kudin, V. N. Staroverov, T. Keith, R. Kobayashi, J. Normand, 
 K. Raghavachari, A. Rendell, J. C. Burant, S. S. Iyengar, J. Tomasi, 
 M. Cossi, N. Rega, J. M. Millam, M. Klene, J. E. Knox, J. B. Cross, 
 V. Bakken, C. Adamo, J. Jaramillo, R. Gomperts, R. E. Stratmann, 
 O. Yazyev, A. J. Austin, R. Cammi, C. Pomelli, J. W. Ochterski, 
 R. L. Martin, K. Morokuma, V. G. Zakrzewski, G. A. Voth, 
 P. Salvador, J. J. Dannenberg, S. Dapprich, A. D. Daniels, 
 O. Farkas, J. B. Foresman, J. V. Ortiz, J. Cioslowski, 
 and D. J. Fox, Gaussian, Inc., Wallingford CT, 2013.
 
 ******************************************
 Gaussian 09:  ES64L-G09RevD.01 24-Apr-2013
                16-Apr-2015 
 ******************************************
 %nprocshared=8
 Will use up to    8 processors via shared memory.
 %mem=15000MB
 %chk=CJS1_emim-cl_B_6-311+g-d-p-_gd3bj_opt-modredundant_difrz.chk
 ----------------------------------------------------------------------
 # opt=modredundant b3lyp/6-311+g(d,p) geom=connectivity integral=grid=
 ultrafine scf=conver=9 empiricaldispersion=gd3bj
 ----------------------------------------------------------------------
 1/14=-1,18=120,19=15,26=4,38=1,57=2/1,3;
 2/9=110,12=2,17=6,18=5,40=1/2;
 3/5=4,6=6,7=111,11=2,16=1,25=1,30=1,71=1,74=-5,75=-5,124=41/1,2,3;
 4//1;
 5/5=2,6=9,38=5/2;
 6/7=2,8=2,9=2,10=2,28=1/1;
 7//1,2,3,16;
 1/14=-1,18=20,19=15,26=4/3(2);
 2/9=110/2;
 99//99;
 2/9=110/2;
 3/5=4,6=6,7=111,11=2,16=1,25=1,30=1,71=1,74=-5,75=-5,124=41/1,2,3;
 4/5=5,16=3,69=1/1;
 5/5=2,6=9,38=5/2;
 7//1,2,3,16;
 1/14=-1,18=20,19=15,26=4/3(-5);
 2/9=110/2;
 6/7=2,8=2,9=2,10=2,19=2,28=1/1;
 99/9=1/99;
 ----------------------------------------------------------------------
 Emim+ (optimised with b3lyp+gd3bj / aug-cc-pvtz) and Cl- in the back p
 osition created on; Thu Apr 16 19:11:52 BST 2015, from; CJS1_emim-cl_B
 _init.com
 ----------------------------------------------------------------------
 Symbolic Z-matrix:
 Charge =  0 Multiplicity = 1
 C                    -0.30066   1.69689  -0.10045 
 C                    -1.6407    1.62111   0.12705 
 C                    -0.87802  -0.43264  -0.15241 
 N                     0.1564    0.40433  -0.27537 
 H                     0.35527   2.54835  -0.15666 
 H                    -2.37064   2.3925    0.30321 
 H                    -0.83093  -1.5052   -0.23834 
 N                    -1.98245   0.28179   0.09122 
 C                     1.56597   0.01048  -0.50468 
 C                     2.41055   0.16153   0.75425 
 H                     1.93885   0.63068  -1.32073 
 H                     1.54873  -1.02158  -0.85541 
 H                     3.43519  -0.14469   0.53668 
 H                     2.43626   1.19734   1.09794 
 H                     2.03038  -0.46596   1.56268 
 C                    -3.33531  -0.26032   0.27921 
 H                    -3.70478   0.02426   1.26353 
 H                    -3.99301   0.13061  -0.4961 
 H                    -3.29381  -1.34495   0.207 
 Cl                   -1.08008   3.61789   0.18622 
 
 Add virtual bond connecting atoms Cl20       and H5         Dist= 3.44D+00.
 Add virtual bond connecting atoms Cl20       and H6         Dist= 3.37D+00.
 The following ModRedundant input section has been read:
 D      20       3       4       1 F                                           
 

 GradGradGradGradGradGradGradGradGradGradGradGradGradGradGradGradGradGrad
 Berny optimization.
 Initialization pass.
                           ----------------------------
                           !    Initial Parameters    !
                           ! (Angstroms and Degrees)  !
 --------------------------                            --------------------------
 ! Name  Definition              Value          Derivative Info.                !
 --------------------------------------------------------------------------------
 ! R1    R(1,2)                  1.3613         estimate D2E/DX2                !
 ! R2    R(1,4)                  1.3821         estimate D2E/DX2                !
 ! R3    R(1,5)                  1.0763         estimate D2E/DX2                !
 ! R4    R(2,6)                  1.0765         estimate D2E/DX2                !
 ! R5    R(2,8)                  1.3827         estimate D2E/DX2                !
 ! R6    R(3,4)                  1.3363         estimate D2E/DX2                !
 ! R7    R(3,7)                  1.077          estimate D2E/DX2                !
 ! R8    R(3,8)                  1.3377         estimate D2E/DX2                !
 ! R9    R(4,9)                  1.4814         estimate D2E/DX2                !
 ! R10   R(5,20)                 1.8226         estimate D2E/DX2                !
 ! R11   R(6,20)                 1.7835         estimate D2E/DX2                !
 ! R12   R(8,16)                 1.4695         estimate D2E/DX2                !
 ! R13   R(9,10)                 1.5235         estimate D2E/DX2                !
 ! R14   R(9,11)                 1.0907         estimate D2E/DX2                !
 ! R15   R(9,12)                 1.0902         estimate D2E/DX2                !
 ! R16   R(10,13)                1.0913         estimate D2E/DX2                !
 ! R17   R(10,14)                1.0916         estimate D2E/DX2                !
 ! R18   R(10,15)                1.0917         estimate D2E/DX2                !
 ! R19   R(16,17)                1.0892         estimate D2E/DX2                !
 ! R20   R(16,18)                1.0893         estimate D2E/DX2                !
 ! R21   R(16,19)                1.0878         estimate D2E/DX2                !
 ! A1    A(2,1,4)              107.1346         estimate D2E/DX2                !
 ! A2    A(2,1,5)              130.7434         estimate D2E/DX2                !
 ! A3    A(4,1,5)              122.1212         estimate D2E/DX2                !
 ! A4    A(1,2,6)              130.9134         estimate D2E/DX2                !
 ! A5    A(1,2,8)              107.0306         estimate D2E/DX2                !
 ! A6    A(6,2,8)              122.0548         estimate D2E/DX2                !
 ! A7    A(4,3,7)              125.6303         estimate D2E/DX2                !
 ! A8    A(4,3,8)              108.7446         estimate D2E/DX2                !
 ! A9    A(7,3,8)              125.6248         estimate D2E/DX2                !
 ! A10   A(1,4,3)              108.5495         estimate D2E/DX2                !
 ! A11   A(1,4,9)              125.6537         estimate D2E/DX2                !
 ! A12   A(3,4,9)              125.7523         estimate D2E/DX2                !
 ! A13   A(1,5,20)              88.5369         estimate D2E/DX2                !
 ! A14   A(2,6,20)              89.481          estimate D2E/DX2                !
 ! A15   A(2,8,3)              108.5402         estimate D2E/DX2                !
 ! A16   A(2,8,16)             125.5604         estimate D2E/DX2                !
 ! A17   A(3,8,16)             125.8977         estimate D2E/DX2                !
 ! A18   A(4,9,10)             111.914          estimate D2E/DX2                !
 ! A19   A(4,9,11)             106.8537         estimate D2E/DX2                !
 ! A20   A(4,9,12)             106.6452         estimate D2E/DX2                !
 ! A21   A(10,9,11)            111.8611         estimate D2E/DX2                !
 ! A22   A(10,9,12)            111.6221         estimate D2E/DX2                !
 ! A23   A(11,9,12)            107.6391         estimate D2E/DX2                !
 ! A24   A(9,10,13)            109.1432         estimate D2E/DX2                !
 ! A25   A(9,10,14)            111.5486         estimate D2E/DX2                !
 ! A26   A(9,10,15)            111.2161         estimate D2E/DX2                !
 ! A27   A(13,10,14)           107.8728         estimate D2E/DX2                !
 ! A28   A(13,10,15)           108.2589         estimate D2E/DX2                !
 ! A29   A(14,10,15)           108.6891         estimate D2E/DX2                !
 ! A30   A(8,16,17)            109.36           estimate D2E/DX2                !
 ! A31   A(8,16,18)            109.415          estimate D2E/DX2                !
 ! A32   A(8,16,19)            108.918          estimate D2E/DX2                !
 ! A33   A(17,16,18)           110.1602         estimate D2E/DX2                !
 ! A34   A(17,16,19)           109.4776         estimate D2E/DX2                !
 ! A35   A(18,16,19)           109.4892         estimate D2E/DX2                !
 ! A36   A(5,20,6)             100.3128         estimate D2E/DX2                !
 ! D1    D(4,1,2,6)           -179.4638         estimate D2E/DX2                !
 ! D2    D(4,1,2,8)              0.1533         estimate D2E/DX2                !
 ! D3    D(5,1,2,6)              0.1927         estimate D2E/DX2                !
 ! D4    D(5,1,2,8)            179.8098         estimate D2E/DX2                !
 ! D5    D(2,1,4,3)             -0.2141         estimate D2E/DX2                !
 ! D6    D(2,1,4,9)           -177.8973         estimate D2E/DX2                !
 ! D7    D(5,1,4,3)           -179.9069         estimate D2E/DX2                !
 ! D8    D(5,1,4,9)              2.41           estimate D2E/DX2                !
 ! D9    D(2,1,5,20)             0.6582         estimate D2E/DX2                !
 ! D10   D(4,1,5,20)          -179.7293         estimate D2E/DX2                !
 ! D11   D(1,2,6,20)            -0.8853         estimate D2E/DX2                !
 ! D12   D(8,2,6,20)           179.5467         estimate D2E/DX2                !
 ! D13   D(1,2,8,3)             -0.04           estimate D2E/DX2                !
 ! D14   D(1,2,8,16)          -179.5961         estimate D2E/DX2                !
 ! D15   D(6,2,8,3)            179.6186         estimate D2E/DX2                !
 ! D16   D(6,2,8,16)             0.0625         estimate D2E/DX2                !
 ! D17   D(7,3,4,1)           -179.9843         estimate D2E/DX2                !
 ! D18   D(7,3,4,9)             -2.3041         estimate D2E/DX2                !
 ! D19   D(8,3,4,1)              0.1911         estimate D2E/DX2                !
 ! D20   D(8,3,4,9)            177.8714         estimate D2E/DX2                !
 ! D21   D(20,3,4,1)            -0.1511         Frozen                          !
 ! D22   D(4,3,8,2)             -0.0943         estimate D2E/DX2                !
 ! D23   D(4,3,8,16)           179.4599         estimate D2E/DX2                !
 ! D24   D(7,3,8,2)           -179.9189         estimate D2E/DX2                !
 ! D25   D(7,3,8,16)            -0.3647         estimate D2E/DX2                !
 ! D26   D(1,4,9,10)            72.1144         estimate D2E/DX2                !
 ! D27   D(1,4,9,11)           -50.6535         estimate D2E/DX2                !
 ! D28   D(1,4,9,12)          -165.5537         estimate D2E/DX2                !
 ! D29   D(3,4,9,10)          -105.1788         estimate D2E/DX2                !
 ! D30   D(3,4,9,11)           132.0533         estimate D2E/DX2                !
 ! D31   D(3,4,9,12)            17.1531         estimate D2E/DX2                !
 ! D32   D(1,5,20,6)            -0.8758         estimate D2E/DX2                !
 ! D33   D(2,6,20,5)             0.946          estimate D2E/DX2                !
 ! D34   D(2,8,16,17)          -59.8536         estimate D2E/DX2                !
 ! D35   D(2,8,16,18)           60.8881         estimate D2E/DX2                !
 ! D36   D(2,8,16,19)         -179.4593         estimate D2E/DX2                !
 ! D37   D(3,8,16,17)          120.6659         estimate D2E/DX2                !
 ! D38   D(3,8,16,18)         -118.5923         estimate D2E/DX2                !
 ! D39   D(3,8,16,19)            1.0602         estimate D2E/DX2                !
 ! D40   D(4,9,10,13)          179.6959         estimate D2E/DX2                !
 ! D41   D(4,9,10,14)          -61.2026         estimate D2E/DX2                !
 ! D42   D(4,9,10,15)           60.3213         estimate D2E/DX2                !
 ! D43   D(11,9,10,13)         -60.4282         estimate D2E/DX2                !
 ! D44   D(11,9,10,14)          58.6733         estimate D2E/DX2                !
 ! D45   D(11,9,10,15)        -179.8028         estimate D2E/DX2                !
 ! D46   D(12,9,10,13)          60.2516         estimate D2E/DX2                !
 ! D47   D(12,9,10,14)         179.3531         estimate D2E/DX2                !
 ! D48   D(12,9,10,15)         -59.123          estimate D2E/DX2                !
 --------------------------------------------------------------------------------
 Trust Radius=3.00D-01 FncErr=1.00D-07 GrdErr=1.00D-06
 Number of steps in this run=    115 maximum allowed number of steps=    120.
 GradGradGradGradGradGradGradGradGradGradGradGradGradGradGradGradGradGrad

                          Input orientation:                          
 ---------------------------------------------------------------------
 Center     Atomic      Atomic             Coordinates (Angstroms)
 Number     Number       Type             X           Y           Z
 ---------------------------------------------------------------------
      1          6           0       -0.300655    1.696891   -0.100451
      2          6           0       -1.640704    1.621114    0.127046
      3          6           0       -0.878023   -0.432639   -0.152411
      4          7           0        0.156399    0.404331   -0.275372
      5          1           0        0.355269    2.548350   -0.156662
      6          1           0       -2.370643    2.392499    0.303211
      7          1           0       -0.830929   -1.505203   -0.238335
      8          7           0       -1.982452    0.281792    0.091219
      9          6           0        1.565972    0.010478   -0.504683
     10          6           0        2.410555    0.161525    0.754255
     11          1           0        1.938853    0.630681   -1.320726
     12          1           0        1.548732   -1.021576   -0.855414
     13          1           0        3.435188   -0.144695    0.536685
     14          1           0        2.436259    1.197337    1.097945
     15          1           0        2.030383   -0.465956    1.562682
     16          6           0       -3.335311   -0.260323    0.279214
     17          1           0       -3.704776    0.024262    1.263526
     18          1           0       -3.993010    0.130614   -0.496103
     19          1           0       -3.293814   -1.344952    0.207005
     20         17           0       -1.080083    3.617892    0.186224
 ---------------------------------------------------------------------
                    Distance matrix (angstroms):
                    1          2          3          4          5
     1  C    0.000000
     2  C    1.361333   0.000000
     3  C    2.207023   2.208547   0.000000
     4  N    1.382102   2.207279   1.336289   0.000000
     5  H    1.076280   2.219046   3.226038   2.156492   0.000000
     6  H    2.220735   1.076513   3.227524   3.267034   2.768821
     7  H    3.248632   3.250092   1.077030   2.150002   4.224338
     8  N    2.206283   1.382700   1.337733   2.173497   3.265527
     9  C    2.547879   3.643625   2.508697   1.481418   2.833322
    10  C    3.230872   4.351608   3.462632   2.490041   3.278857
    11  H    2.764285   3.986255   3.229613   2.078736   2.745949
    12  H    3.373465   4.256940   2.594263   2.075633   3.828444
    13  H    4.213538   5.389858   4.377391   3.422181   4.149593
    14  H    3.029258   4.212346   3.899318   2.777160   2.780251
    15  H    3.588545   4.460246   3.376608   2.765440   3.853335
    16  C    3.630974   2.536662   2.500851   3.597411   4.658220
    17  H    4.030653   2.846387   3.194396   4.173887   4.987176
    18  H    4.030292   2.853638   3.184105   4.164281   4.986802
    19  H    4.278591   3.396574   2.607209   3.898288   5.348445
    20  Cl   2.092829   2.074831   4.069681   3.474037   1.822560
                    6          7          8          9         10
     6  H    0.000000
     7  H    4.225645   0.000000
     8  N    2.156552   2.151270   0.000000
     9  C    4.671579   2.848397   3.608327   0.000000
    10  C    5.295332   3.777623   4.444389   1.523503   0.000000
    11  H    4.930814   3.661320   4.182337   1.090696   2.179026
    12  H    5.325394   2.505488   3.881255   1.090158   2.175661
    13  H    6.340310   4.544380   5.452628   2.145342   1.091320
    14  H    5.016605   4.445659   4.623497   2.175879   1.091646
    15  H    5.396857   3.537061   4.339029   2.171788   1.091704
    16  C    2.822875   2.844207   1.469510   4.970956   5.780882
    17  H    2.882822   3.585226   2.099292   5.559455   6.138035
    18  H    2.896049   3.569467   2.100035   5.560287   6.524569
    19  H    3.850979   2.507949   2.092695   5.095214   5.925266
    20  Cl   1.783486   5.146691   3.457291   4.526852   4.945066
                   11         12         13         14         15
    11  H    0.000000
    12  H    1.760302   0.000000
    13  H    2.508028   2.503113   0.000000
    14  H    2.533472   3.086566   1.764631   0.000000
    15  H    3.086265   2.527427   1.768998   1.774052   0.000000
    16  C    5.583055   5.071564   6.776379   6.008836   5.520892
    17  H    6.236718   5.760471   7.178853   6.254265   5.763840
    18  H    6.009748   5.671644   7.504703   6.709276   6.393415
    19  H    5.798094   4.968255   6.843155   6.331725   5.563953
    20  Cl   4.506473   5.433262   5.887916   4.365201   5.314833
                   16         17         18         19         20
    16  C    0.000000
    17  H    1.089203   0.000000
    18  H    1.089273   1.786249   0.000000
    19  H    1.087822   1.777603   1.777788   0.000000
    20  Cl   4.487233   4.578622   4.594761   5.434231   0.000000
 Stoichiometry    C6H11ClN2
 Framework group  C1[X(C6H11ClN2)]
 Deg. of freedom    54
 Full point group                 C1      NOp   1
 Largest Abelian subgroup         C1      NOp   1
 Largest concise Abelian subgroup C1      NOp   1
                         Standard orientation:                         
 ---------------------------------------------------------------------
 Center     Atomic      Atomic             Coordinates (Angstroms)
 Number     Number       Type             X           Y           Z
 ---------------------------------------------------------------------
      1          6           0       -0.029901   -0.663625   -0.200090
      2          6           0        1.166329   -0.055365    0.028560
      3          6           0       -0.370732    1.516826   -0.179621
      4          7           0       -0.976301    0.335180   -0.330175
      5          1           0       -0.282939   -1.706302   -0.284800
      6          1           0        2.149681   -0.467340    0.177478
      7          1           0       -0.851841    2.479177   -0.228700
      8          7           0        0.932405    1.307368    0.038308
      9          6           0       -2.427315    0.127256   -0.544479
     10          6           0       -3.118355   -0.393692    0.709370
     11          1           0       -2.527355   -0.565538   -1.380927
     12          1           0       -2.837111    1.087034   -0.859660
     13          1           0       -4.181983   -0.525078    0.503422
     14          1           0       -2.714863   -1.360131    1.017394
     15          1           0       -3.014735    0.308951    1.538450
     16          6           0        1.949819    2.347679    0.243444
     17          1           0        2.417736    2.208117    1.217066
     18          1           0        2.698121    2.282876   -0.545455
     19          1           0        1.469111    3.322898    0.208480
     20         17           0        1.468493   -2.108057    0.019836
 ---------------------------------------------------------------------
 Rotational constants (GHZ):      1.5153909      1.1343100      0.6858416
 Standard basis: 6-311+G(d,p) (5D, 7F)
 There are   281 symmetry adapted cartesian basis functions of A   symmetry.
 There are   272 symmetry adapted basis functions of A   symmetry.
   272 basis functions,   429 primitive gaussians,   281 cartesian basis functions
    39 alpha electrons       39 beta electrons
       nuclear repulsion energy       543.0499082714 Hartrees.
 NAtoms=   20 NActive=   20 NUniq=   20 SFac= 1.00D+00 NAtFMM=   60 NAOKFM=F Big=F
 Integral buffers will be    131072 words long.
 Raffenetti 2 integral format.
 Two-electron integral symmetry is turned on.
 Nuclear repulsion after empirical dispersion term =      543.0182018729 Hartrees.
 One-electron integrals computed using PRISM.
 NBasis=   272 RedAO= T EigKep=  1.52D-05  NBF=   272
 NBsUse=   272 1.00D-06 EigRej= -1.00D+00 NBFU=   272
 ExpMin= 4.38D-02 ExpMax= 1.06D+05 ExpMxC= 3.62D+03 IAcc=3 IRadAn=         5 AccDes= 0.00D+00
 Harris functional with IExCor=  402 and IRadAn=       5 diagonalized for initial guess.
 HarFok:  IExCor=  402 AccDes= 0.00D+00 IRadAn=         5 IDoV= 1 UseB2=F ITyADJ=14
 ICtDFT=  3500011 ScaDFX=  1.000000  1.000000  1.000000  1.000000
 FoFCou: FMM=F IPFlag=           0 FMFlag=      100000 FMFlg1=           0
         NFxFlg=           0 DoJE=T BraDBF=F KetDBF=T FulRan=T
         wScrn=  0.000000 ICntrl=     500 IOpCl=  0 I1Cent=   200000004 NGrid=           0
         NMat0=    1 NMatS0=      1 NMatT0=    0 NMatD0=    1 NMtDS0=    0 NMtDT0=    0
 Petite list used in FoFCou.
 Keep R1 ints in memory in canonical form, NReq=700735283.
 Requested convergence on RMS density matrix=1.00D-09 within 128 cycles.
 Requested convergence on MAX density matrix=1.00D-07.
 Requested convergence on             energy=1.00D-07.
 No special actions if energy rises.
 SCF Done:  E(RB3LYP) =  -804.933963388     A.U. after   16 cycles
            NFock= 16  Conv=0.91D-09     -V/T= 2.0018

 **********************************************************************

            Population analysis using the SCF density.

 **********************************************************************

 Orbital symmetries:
       Occupied  (A) (A) (A) (A) (A) (A) (A) (A) (A) (A) (A) (A)
                 (A) (A) (A) (A) (A) (A) (A) (A) (A) (A) (A) (A)
                 (A) (A) (A) (A) (A) (A) (A) (A) (A) (A) (A) (A)
                 (A) (A) (A)
       Virtual   (A) (A) (A) (A) (A) (A) (A) (A) (A) (A) (A) (A)
                 (A) (A) (A) (A) (A) (A) (A) (A) (A) (A) (A) (A)
                 (A) (A) (A) (A) (A) (A) (A) (A) (A) (A) (A) (A)
                 (A) (A) (A) (A) (A) (A) (A) (A) (A) (A) (A) (A)
                 (A) (A) (A) (A) (A) (A) (A) (A) (A) (A) (A) (A)
                 (A) (A) (A) (A) (A) (A) (A) (A) (A) (A) (A) (A)
                 (A) (A) (A) (A) (A) (A) (A) (A) (A) (A) (A) (A)
                 (A) (A) (A) (A) (A) (A) (A) (A) (A) (A) (A) (A)
                 (A) (A) (A) (A) (A) (A) (A) (A) (A) (A) (A) (A)
                 (A) (A) (A) (A) (A) (A) (A) (A) (A) (A) (A) (A)
                 (A) (A) (A) (A) (A) (A) (A) (A) (A) (A) (A) (A)
                 (A) (A) (A) (A) (A) (A) (A) (A) (A) (A) (A) (A)
                 (A) (A) (A) (A) (A) (A) (A) (A) (A) (A) (A) (A)
                 (A) (A) (A) (A) (A) (A) (A) (A) (A) (A) (A) (A)
                 (A) (A) (A) (A) (A) (A) (A) (A) (A) (A) (A) (A)
                 (A) (A) (A) (A) (A) (A) (A) (A) (A) (A) (A) (A)
                 (A) (A) (A) (A) (A) (A) (A) (A) (A) (A) (A) (A)
                 (A) (A) (A) (A) (A) (A) (A) (A) (A) (A) (A) (A)
                 (A) (A) (A) (A) (A) (A) (A) (A) (A) (A) (A) (A)
                 (A) (A) (A) (A) (A)
 The electronic state is 1-A.
 Alpha  occ. eigenvalues -- -101.38220 -14.40032 -14.39816 -10.26811 -10.24995
 Alpha  occ. eigenvalues --  -10.24493 -10.20617 -10.20525 -10.19302  -9.30666
 Alpha  occ. eigenvalues --   -7.06433  -7.06364  -7.06329  -1.07356  -0.96148
 Alpha  occ. eigenvalues --   -0.83436  -0.80535  -0.75428  -0.71430  -0.68075
 Alpha  occ. eigenvalues --   -0.64260  -0.59393  -0.55967  -0.51508  -0.50805
 Alpha  occ. eigenvalues --   -0.49565  -0.48742  -0.46755  -0.45916  -0.44392
 Alpha  occ. eigenvalues --   -0.43265  -0.41600  -0.40839  -0.39014  -0.31674
 Alpha  occ. eigenvalues --   -0.28935  -0.19240  -0.18692  -0.16125
 Alpha virt. eigenvalues --   -0.03299  -0.02161  -0.00884   0.00513   0.00880
 Alpha virt. eigenvalues --    0.01668   0.02340   0.03204   0.03948   0.04319
 Alpha virt. eigenvalues --    0.04351   0.05797   0.06614   0.06914   0.07497
 Alpha virt. eigenvalues --    0.08763   0.09507   0.09855   0.10143   0.10834
 Alpha virt. eigenvalues --    0.11491   0.12236   0.13235   0.14021   0.14569
 Alpha virt. eigenvalues --    0.14760   0.15641   0.16146   0.16392   0.16914
 Alpha virt. eigenvalues --    0.17175   0.18025   0.18591   0.19413   0.19560
 Alpha virt. eigenvalues --    0.20895   0.21335   0.21915   0.22444   0.22818
 Alpha virt. eigenvalues --    0.23221   0.23691   0.24411   0.25517   0.25830
 Alpha virt. eigenvalues --    0.26575   0.27104   0.28697   0.28955   0.29310
 Alpha virt. eigenvalues --    0.31556   0.31908   0.34552   0.37529   0.38402
 Alpha virt. eigenvalues --    0.39749   0.40725   0.41344   0.42289   0.44226
 Alpha virt. eigenvalues --    0.47526   0.48285   0.48916   0.49951   0.51722
 Alpha virt. eigenvalues --    0.52526   0.53739   0.55045   0.55783   0.56300
 Alpha virt. eigenvalues --    0.57623   0.58405   0.58471   0.60490   0.61136
 Alpha virt. eigenvalues --    0.61796   0.62802   0.64165   0.66097   0.67045
 Alpha virt. eigenvalues --    0.67680   0.68208   0.69793   0.71101   0.73554
 Alpha virt. eigenvalues --    0.76236   0.76674   0.80936   0.81486   0.82657
 Alpha virt. eigenvalues --    0.83103   0.85721   0.87261   0.91017   0.93263
 Alpha virt. eigenvalues --    0.93925   0.95532   0.96464   0.98318   1.00095
 Alpha virt. eigenvalues --    1.00441   1.00814   1.03606   1.04094   1.06492
 Alpha virt. eigenvalues --    1.07837   1.09250   1.17184   1.17742   1.18400
 Alpha virt. eigenvalues --    1.19482   1.22717   1.26654   1.28738   1.31411
 Alpha virt. eigenvalues --    1.34292   1.38893   1.41305   1.42450   1.43791
 Alpha virt. eigenvalues --    1.47087   1.48877   1.50352   1.50768   1.51089
 Alpha virt. eigenvalues --    1.53455   1.53953   1.56694   1.58360   1.60625
 Alpha virt. eigenvalues --    1.61642   1.62164   1.63150   1.64734   1.65462
 Alpha virt. eigenvalues --    1.69332   1.71497   1.73090   1.75920   1.76351
 Alpha virt. eigenvalues --    1.77268   1.78591   1.80140   1.81459   1.84765
 Alpha virt. eigenvalues --    1.87460   1.93053   1.96021   1.99032   2.01391
 Alpha virt. eigenvalues --    2.02766   2.06975   2.09090   2.11959   2.13969
 Alpha virt. eigenvalues --    2.14570   2.18804   2.19214   2.23490   2.27144
 Alpha virt. eigenvalues --    2.29308   2.34036   2.38157   2.38405   2.40271
 Alpha virt. eigenvalues --    2.42008   2.44629   2.45493   2.47657   2.47792
 Alpha virt. eigenvalues --    2.48455   2.50064   2.50697   2.52646   2.53824
 Alpha virt. eigenvalues --    2.56647   2.57731   2.59340   2.61132   2.61443
 Alpha virt. eigenvalues --    2.61947   2.64452   2.65547   2.69147   2.73642
 Alpha virt. eigenvalues --    2.76534   2.79302   2.81593   2.82381   2.83084
 Alpha virt. eigenvalues --    2.90874   2.90999   2.92418   2.94827   2.96904
 Alpha virt. eigenvalues --    2.98572   3.01208   3.12238   3.21251   3.26791
 Alpha virt. eigenvalues --    3.39680   3.58247   3.58358   3.64652   3.67217
 Alpha virt. eigenvalues --    3.71663   3.74845   3.77787   3.78598   3.79330
 Alpha virt. eigenvalues --    3.84258   3.89982   3.91625   3.92418   4.16842
 Alpha virt. eigenvalues --    4.20483   4.77265   4.93680   4.95168   5.28429
 Alpha virt. eigenvalues --    9.93163  23.79091  23.82997  23.88409  23.90429
 Alpha virt. eigenvalues --   23.94657  24.19643  25.94929  26.39724  26.71430
 Alpha virt. eigenvalues --   35.49101  35.61873 215.95760
          Condensed to atoms (all electrons):
               1          2          3          4          5          6
     1  C   11.507100  -4.653360   0.077080  -2.271444   0.762340  -0.097014
     2  C   -4.653360  11.606904  -0.078921   2.061076  -0.124118   0.763926
     3  C    0.077080  -0.078921   5.703967   0.193026   0.086005   0.093213
     4  N   -2.271444   2.061076   0.193026   8.201608  -0.180482   0.046415
     5  H    0.762340  -0.124118   0.086005  -0.180482   0.539802   0.014013
     6  H   -0.097014   0.763926   0.093213   0.046415   0.014013   0.552513
     7  H    0.042024   0.043484   0.358718  -0.038089  -0.001063  -0.001122
     8  N    1.814227  -2.065942   0.204256  -1.072164   0.036817  -0.191779
     9  C    0.088447  -0.153057   0.089256  -0.075839   0.057822   0.019576
    10  C   -0.348986   0.258648  -0.079329   0.111272  -0.025019  -0.002785
    11  H   -0.027461   0.005347  -0.011967  -0.045706   0.000827   0.000118
    12  H    0.018367   0.009164   0.006591  -0.059611  -0.000566  -0.000012
    13  H    0.007456   0.004698   0.001540   0.019098  -0.000115   0.000000
    14  H    0.012841  -0.010891  -0.004099  -0.027313   0.001936   0.000050
    15  H   -0.018935  -0.012058   0.011472  -0.001675   0.000251   0.000021
    16  C    0.295028  -0.446629  -0.049189  -0.147607   0.012184   0.018570
    17  H    0.011718  -0.025216  -0.009507  -0.006956   0.000074   0.000688
    18  H    0.007362  -0.022866  -0.013309  -0.006760   0.000065   0.000444
    19  H    0.003559   0.020884   0.018081   0.010047  -0.000004  -0.000378
    20  Cl  -0.794106  -0.834616  -0.445075   0.253837  -0.356026  -0.383956
               7          8          9         10         11         12
     1  C    0.042024   1.814227   0.088447  -0.348986  -0.027461   0.018367
     2  C    0.043484  -2.065942  -0.153057   0.258648   0.005347   0.009164
     3  C    0.358718   0.204256   0.089256  -0.079329  -0.011967   0.006591
     4  N   -0.038089  -1.072164  -0.075839   0.111272  -0.045706  -0.059611
     5  H   -0.001063   0.036817   0.057822  -0.025019   0.000827  -0.000566
     6  H   -0.001122  -0.191779   0.019576  -0.002785   0.000118  -0.000012
     7  H    0.522919  -0.028630  -0.037286   0.009375  -0.000244   0.003966
     8  N   -0.028630   7.963276  -0.101739  -0.050342  -0.009370   0.007235
     9  C   -0.037286  -0.101739   5.860595  -0.145197   0.518434   0.385071
    10  C    0.009375  -0.050342  -0.145197   5.449718  -0.070833  -0.029942
    11  H   -0.000244  -0.009370   0.518434  -0.070833   0.506700  -0.035043
    12  H    0.003966   0.007235   0.385071  -0.029942  -0.035043   0.554191
    13  H   -0.000065  -0.000326  -0.078217   0.422888  -0.003458  -0.003603
    14  H   -0.000060   0.001863   0.002627   0.403860  -0.006231   0.006307
    15  H    0.000002  -0.000883   0.008443   0.394801   0.006347  -0.008263
    16  C   -0.019336   0.298658   0.014841  -0.013427  -0.000999   0.001168
    17  H   -0.000268  -0.034620  -0.000213  -0.000193   0.000000   0.000000
    18  H   -0.000217  -0.031816  -0.000684  -0.000100  -0.000005  -0.000003
    19  H    0.003327  -0.053966   0.002582   0.000025  -0.000001   0.000039
    20  Cl   0.011783   0.345195  -0.249421   0.075535  -0.005878   0.003283
              13         14         15         16         17         18
     1  C    0.007456   0.012841  -0.018935   0.295028   0.011718   0.007362
     2  C    0.004698  -0.010891  -0.012058  -0.446629  -0.025216  -0.022866
     3  C    0.001540  -0.004099   0.011472  -0.049189  -0.009507  -0.013309
     4  N    0.019098  -0.027313  -0.001675  -0.147607  -0.006956  -0.006760
     5  H   -0.000115   0.001936   0.000251   0.012184   0.000074   0.000065
     6  H    0.000000   0.000050   0.000021   0.018570   0.000688   0.000444
     7  H   -0.000065  -0.000060   0.000002  -0.019336  -0.000268  -0.000217
     8  N   -0.000326   0.001863  -0.000883   0.298658  -0.034620  -0.031816
     9  C   -0.078217   0.002627   0.008443   0.014841  -0.000213  -0.000684
    10  C    0.422888   0.403860   0.394801  -0.013427  -0.000193  -0.000100
    11  H   -0.003458  -0.006231   0.006347  -0.000999   0.000000  -0.000005
    12  H   -0.003603   0.006307  -0.008263   0.001168   0.000000  -0.000003
    13  H    0.527865  -0.022560  -0.026357   0.000096   0.000000   0.000000
    14  H   -0.022560   0.502099  -0.026324   0.000124   0.000001   0.000000
    15  H   -0.026357  -0.026324   0.531427  -0.000435   0.000002   0.000001
    16  C    0.000096   0.000124  -0.000435   5.113427   0.436027   0.439318
    17  H    0.000000   0.000001   0.000002   0.436027   0.503168  -0.031024
    18  H    0.000000   0.000000   0.000001   0.439318  -0.031024   0.501221
    19  H    0.000000   0.000000   0.000001   0.364460  -0.025158  -0.025047
    20  Cl   0.000224  -0.001734  -0.001932  -0.112900  -0.003876  -0.003194
              19         20
     1  C    0.003559  -0.794106
     2  C    0.020884  -0.834616
     3  C    0.018081  -0.445075
     4  N    0.010047   0.253837
     5  H   -0.000004  -0.356026
     6  H   -0.000378  -0.383956
     7  H    0.003327   0.011783
     8  N   -0.053966   0.345195
     9  C    0.002582  -0.249421
    10  C    0.000025   0.075535
    11  H   -0.000001  -0.005878
    12  H    0.000039   0.003283
    13  H    0.000000   0.000224
    14  H    0.000000  -0.001734
    15  H    0.000001  -0.001932
    16  C    0.364460  -0.112900
    17  H   -0.025158  -0.003876
    18  H   -0.025047  -0.003194
    19  H    0.532742   0.002586
    20  Cl   0.002586  19.578931
 Mulliken charges:
               1
     1  C   -0.436242
     2  C   -0.346458
     3  C   -0.151809
     4  N    0.037268
     5  H    0.175258
     6  H    0.167501
     7  H    0.130781
     8  N   -0.029950
     9  C   -0.206043
    10  C   -0.359971
    11  H    0.179422
    12  H    0.141661
    13  H    0.150835
    14  H    0.167502
    15  H    0.144094
    16  C   -0.203380
    17  H    0.185353
    18  H    0.186614
    19  H    0.146222
    20  Cl  -0.078658
 Sum of Mulliken charges =   0.00000
 Mulliken charges with hydrogens summed into heavy atoms:
               1
     1  C   -0.260984
     2  C   -0.178957
     3  C   -0.021027
     4  N    0.037268
     8  N   -0.029950
     9  C    0.115040
    10  C    0.102460
    16  C    0.314809
    20  Cl  -0.078658
 Electronic spatial extent (au):  <R**2>=           1685.0727
 Charge=              0.0000 electrons
 Dipole moment (field-independent basis, Debye):
    X=             -5.0841    Y=              9.2686    Z=             -0.2850  Tot=             10.5752
 Quadrupole moment (field-independent basis, Debye-Ang):
   XX=            -57.4921   YY=            -71.1355   ZZ=            -64.5036
   XY=             15.7220   XZ=              1.7870   YZ=              0.8403
 Traceless Quadrupole moment (field-independent basis, Debye-Ang):
   XX=              6.8850   YY=             -6.7584   ZZ=             -0.1266
   XY=             15.7220   XZ=              1.7870   YZ=              0.8403
 Octapole moment (field-independent basis, Debye-Ang**2):
  XXX=            -23.8593  YYY=             72.7520  ZZZ=              0.2767  XYY=            -24.1183
  XXY=             31.5268  XXZ=             -1.3442  XZZ=             -2.6973  YZZ=              4.0295
  YYZ=             -0.5587  XYZ=              1.8563
 Hexadecapole moment (field-independent basis, Debye-Ang**3):
 XXXX=          -1189.7090 YYYY=           -980.4204 ZZZZ=           -143.1887 XXXY=             72.8435
 XXXZ=             10.8728 YYYX=            102.4468 YYYZ=              3.3587 ZZZX=              4.6840
 ZZZY=              4.6781 XXYY=           -386.2367 XXZZ=           -228.6637 YYZZ=           -184.6259
 XXYZ=              0.8852 YYXZ=              4.0900 ZZXY=             11.5468
 N-N= 5.430182018729D+02 E-N=-2.982043870857D+03  KE= 8.034870245079D+02
 Calling FoFJK, ICntrl=      2127 FMM=F ISym2X=0 I1Cent= 0 IOpClX= 0 NMat=1 NMatS=1 NMatT=0.
 ***** Axes restored to original set *****
 -------------------------------------------------------------------
 Center     Atomic                   Forces (Hartrees/Bohr)
 Number     Number              X              Y              Z
 -------------------------------------------------------------------
      1        6           0.038039731   -0.059550923   -0.011863052
      2        6          -0.033619127   -0.066547111    0.000347769
      3        6           0.000234174   -0.019742501   -0.001258860
      4        7           0.007366045   -0.022142986   -0.002372320
      5        1           0.022039526   -0.028101196   -0.006405396
      6        1          -0.022312868   -0.033213588    0.001169342
      7        1           0.000269776   -0.001371731   -0.000032767
      8        7          -0.002583595   -0.025114161   -0.001580053
      9        6          -0.012055079    0.002149158    0.001845600
     10        6           0.001638035    0.000184327   -0.000912896
     11        1           0.000726493    0.000911051    0.000527218
     12        1           0.001102939   -0.001108004   -0.000034261
     13        1           0.001218455   -0.000430145    0.000258487
     14        1          -0.001257794   -0.000278945   -0.000395906
     15        1          -0.000677961    0.000142742    0.000015697
     16        6           0.009578809    0.002181129   -0.001474575
     17        1          -0.000652306    0.000653964   -0.000103697
     18        1          -0.000615255    0.000599323    0.000379004
     19        1          -0.000495011   -0.001050085    0.000026170
     20       17          -0.007944988    0.251829684    0.021864496
 -------------------------------------------------------------------
 Cartesian Forces:  Max     0.251829684 RMS     0.036382548

 GradGradGradGradGradGradGradGradGradGradGradGradGradGradGradGradGradGrad
 Berny optimization.
 FormGI is forming the generalized inverse of G from B-inverse, IUseBI=4.
 Internal  Forces:  Max     0.126977498 RMS     0.026892331
 Search for a local minimum.
 Step number   1 out of a maximum of  115
 All quantities printed in internal units (Hartrees-Bohrs-Radians)
 Mixed Optimization -- RFO/linear search
 Second derivative matrix not updated -- first step.
 ITU=  0
     Eigenvalues ---    0.00455   0.00615   0.00772   0.00987   0.01454
     Eigenvalues ---    0.01610   0.01852   0.01978   0.02281   0.02525
     Eigenvalues ---    0.04227   0.05243   0.05503   0.05789   0.07542
     Eigenvalues ---    0.07631   0.08902   0.09474   0.09584   0.12757
     Eigenvalues ---    0.16000   0.16000   0.16000   0.16000   0.16000
     Eigenvalues ---    0.16000   0.16000   0.16953   0.20370   0.21947
     Eigenvalues ---    0.22887   0.23520   0.24966   0.24999   0.30032
     Eigenvalues ---    0.33959   0.34408   0.34616   0.34623   0.34660
     Eigenvalues ---    0.34732   0.34794   0.34897   0.34905   0.35066
     Eigenvalues ---    0.35632   0.35799   0.36356   0.43530   0.43639
     Eigenvalues ---    0.48781   0.55155   0.564681000.000001000.00000
     Eigenvalues --- 1000.000001000.000001000.000001000.000001000.00000
     Eigenvalues --- 1000.000001000.000001000.000001000.000001000.00000
     Eigenvalues --- 1000.000001000.000001000.000001000.000001000.00000
     Eigenvalues --- 1000.000001000.000001000.000001000.000001000.00000
     Eigenvalues --- 1000.000001000.000001000.000001000.000001000.00000
     Eigenvalues --- 1000.000001000.000001000.000001000.000001000.00000
     Eigenvalues --- 1000.000001000.000001000.000001000.000001000.00000
     Eigenvalues --- 1000.000001000.000001000.000001000.000001000.00000
     Eigenvalues --- 1000.000001000.000001000.000001000.000001000.00000
     Eigenvalues --- 1000.000001000.000001000.000001000.000001000.00000
 RFO step:  Lambda=-2.07688010D-01 EMin= 4.55051552D-03
 Linear search not attempted -- first point.
 Maximum step size (   0.300) exceeded in Quadratic search.
    -- Step size scaled by   0.391
 Iteration  1 RMS(Cart)=  0.03397074 RMS(Int)=  0.00113429
 Iteration  2 RMS(Cart)=  0.00092860 RMS(Int)=  0.00059159
 Iteration  3 RMS(Cart)=  0.00000120 RMS(Int)=  0.00059159
 Iteration  4 RMS(Cart)=  0.00000000 RMS(Int)=  0.00059159
 Iteration  1 RMS(Cart)=  0.00000109 RMS(Int)=  0.00000265
 Iteration  2 RMS(Cart)=  0.00000099 RMS(Int)=  0.00000275
 Variable       Old X    -DE/DX   Delta X   Delta X   Delta X     New X
                                 (Linear)    (Quad)   (Total)
    R1        2.57255  -0.00454   0.00000   0.00282   0.00087   2.57342
    R2        2.61180   0.02735   0.00000   0.01568   0.01563   2.62742
    R3        2.03387   0.04970   0.00000   0.03733   0.03624   2.07011
    R4        2.03431   0.05289   0.00000   0.03965   0.03852   2.07283
    R5        2.61292   0.02939   0.00000   0.01693   0.01688   2.62980
    R6        2.52522   0.01056   0.00000   0.00437   0.00452   2.52974
    R7        2.03529   0.00138   0.00000   0.00094   0.00094   2.03624
    R8        2.52795   0.01007   0.00000   0.00419   0.00434   2.53228
    R9        2.79947  -0.00947   0.00000  -0.00671  -0.00671   2.79277
   R10        3.44414   0.11938   0.00000   0.15368   0.15499   3.59913
   R11        3.37030   0.12698   0.00000   0.16054   0.16180   3.53210
   R12        2.77697  -0.00823   0.00000  -0.00568  -0.00568   2.77129
   R13        2.87900  -0.00038   0.00000  -0.00029  -0.00029   2.87871
   R14        2.06112   0.00037   0.00000   0.00026   0.00026   2.06138
   R15        2.06010   0.00104   0.00000   0.00073   0.00073   2.06083
   R16        2.06230   0.00121   0.00000   0.00086   0.00086   2.06315
   R17        2.06291  -0.00042   0.00000  -0.00030  -0.00030   2.06262
   R18        2.06302   0.00017   0.00000   0.00012   0.00012   2.06314
   R19        2.05830   0.00030   0.00000   0.00021   0.00021   2.05851
   R20        2.05843   0.00032   0.00000   0.00022   0.00022   2.05865
   R21        2.05569   0.00103   0.00000   0.00072   0.00072   2.05640
    A1        1.86985  -0.00021   0.00000  -0.00208  -0.00168   1.86817
    A2        2.28190  -0.03854   0.00000  -0.02766  -0.02940   2.25250
    A3        2.13142   0.03876   0.00000   0.02974   0.03108   2.16250
    A4        2.28487  -0.04094   0.00000  -0.03016  -0.03193   2.25294
    A5        1.86804  -0.00132   0.00000  -0.00305  -0.00264   1.86540
    A6        2.13026   0.04225   0.00000   0.03321   0.03457   2.16483
    A7        2.19266   0.00268   0.00000   0.00230   0.00237   2.19504
    A8        1.89795  -0.00575   0.00000  -0.00501  -0.00516   1.89279
    A9        2.19257   0.00307   0.00000   0.00271   0.00279   2.19536
   A10        1.89455   0.00370   0.00000   0.00503   0.00471   1.89925
   A11        2.19307  -0.00180   0.00000  -0.00247  -0.00231   2.19076
   A12        2.19479  -0.00191   0.00000  -0.00256  -0.00240   2.19239
   A13        1.54526   0.09685   0.00000   0.09221   0.09200   1.63726
   A14        1.56174   0.09667   0.00000   0.09256   0.09223   1.65397
   A15        1.89438   0.00358   0.00000   0.00511   0.00477   1.89916
   A16        2.19144  -0.00158   0.00000  -0.00237  -0.00221   2.18924
   A17        2.19733  -0.00200   0.00000  -0.00273  -0.00257   2.19476
   A18        1.95327  -0.00034   0.00000  -0.00033  -0.00033   1.95294
   A19        1.86495   0.00025   0.00000   0.00023   0.00023   1.86518
   A20        1.86131   0.00110   0.00000   0.00144   0.00144   1.86275
   A21        1.95234  -0.00068   0.00000  -0.00100  -0.00100   1.95135
   A22        1.94817  -0.00057   0.00000  -0.00069  -0.00069   1.94749
   A23        1.87866   0.00037   0.00000   0.00051   0.00051   1.87916
   A24        1.90491   0.00126   0.00000   0.00147   0.00147   1.90638
   A25        1.94689  -0.00150   0.00000  -0.00166  -0.00166   1.94523
   A26        1.94109  -0.00065   0.00000  -0.00077  -0.00077   1.94032
   A27        1.88273   0.00051   0.00000   0.00068   0.00068   1.88341
   A28        1.88947   0.00003   0.00000   0.00014   0.00015   1.88962
   A29        1.89698   0.00044   0.00000   0.00022   0.00022   1.89720
   A30        1.90869   0.00004   0.00000  -0.00002  -0.00002   1.90868
   A31        1.90965   0.00012   0.00000   0.00008   0.00008   1.90973
   A32        1.90098   0.00100   0.00000   0.00116   0.00116   1.90214
   A33        1.92266  -0.00089   0.00000  -0.00115  -0.00115   1.92151
   A34        1.91074  -0.00011   0.00000  -0.00002  -0.00002   1.91073
   A35        1.91095  -0.00013   0.00000  -0.00003  -0.00003   1.91092
   A36        1.75079  -0.11403   0.00000  -0.12693  -0.12288   1.62791
    D1       -3.13223  -0.00043   0.00000  -0.00052  -0.00054  -3.13278
    D2        0.00268  -0.00015   0.00000  -0.00024  -0.00024   0.00244
    D3        0.00336  -0.00014   0.00000  -0.00017  -0.00017   0.00319
    D4        3.13827   0.00014   0.00000   0.00011   0.00013   3.13840
    D5       -0.00374   0.00006   0.00000   0.00014   0.00015  -0.00359
    D6       -3.10489   0.00013   0.00000   0.00024   0.00025  -3.10465
    D7       -3.13997   0.00011   0.00000   0.00006   0.00005  -3.13992
    D8        0.04206   0.00018   0.00000   0.00016   0.00015   0.04221
    D9        0.01149  -0.00016   0.00000  -0.00022  -0.00028   0.01121
   D10       -3.13687   0.00000   0.00000   0.00003   0.00001  -3.13686
   D11       -0.01545   0.00015   0.00000   0.00029   0.00034  -0.01511
   D12        3.13368   0.00004   0.00000   0.00013   0.00017   3.13385
   D13       -0.00070   0.00015   0.00000   0.00022   0.00022  -0.00048
   D14       -3.13454   0.00009   0.00000   0.00010   0.00010  -3.13444
   D15        3.13494   0.00003   0.00000   0.00019   0.00021   3.13514
   D16        0.00109  -0.00003   0.00000   0.00007   0.00009   0.00118
   D17       -3.14132   0.00003   0.00000   0.00006   0.00006  -3.14126
   D18       -0.04021  -0.00004   0.00000  -0.00004  -0.00004  -0.04025
   D19        0.00334   0.00002   0.00000  -0.00001  -0.00002   0.00331
   D20        3.10444  -0.00005   0.00000  -0.00011  -0.00012   3.10433
   D21       -0.00264   0.00004   0.00000   0.00000   0.00002  -0.00261
   D22       -0.00165  -0.00012   0.00000  -0.00013  -0.00013  -0.00177
   D23        3.13217  -0.00005   0.00000  -0.00001   0.00000   3.13216
   D24       -3.14018  -0.00013   0.00000  -0.00020  -0.00020  -3.14038
   D25       -0.00636  -0.00006   0.00000  -0.00008  -0.00008  -0.00644
   D26        1.25863  -0.00010   0.00000  -0.00016  -0.00017   1.25847
   D27       -0.88407   0.00079   0.00000   0.00112   0.00112  -0.88295
   D28       -2.88946  -0.00028   0.00000  -0.00025  -0.00025  -2.88971
   D29       -1.83572  -0.00014   0.00000  -0.00021  -0.00021  -1.83592
   D30        2.30476   0.00075   0.00000   0.00107   0.00107   2.30584
   D31        0.29938  -0.00032   0.00000  -0.00030  -0.00030   0.29908
   D32       -0.01529   0.00074   0.00000   0.00111   0.00103  -0.01426
   D33        0.01651  -0.00071   0.00000  -0.00110  -0.00102   0.01550
   D34       -1.04464   0.00055   0.00000   0.00078   0.00078  -1.04386
   D35        1.06270  -0.00045   0.00000  -0.00060  -0.00060   1.06210
   D36       -3.13216   0.00007   0.00000   0.00011   0.00011  -3.13204
   D37        2.10602   0.00045   0.00000   0.00061   0.00061   2.10662
   D38       -2.06983  -0.00054   0.00000  -0.00077  -0.00077  -2.07059
   D39        0.01850  -0.00003   0.00000  -0.00006  -0.00006   0.01844
   D40        3.13629   0.00039   0.00000   0.00060   0.00060   3.13689
   D41       -1.06819   0.00090   0.00000   0.00136   0.00136  -1.06682
   D42        1.05281  -0.00004   0.00000  -0.00005  -0.00005   1.05276
   D43       -1.05467   0.00001   0.00000  -0.00002  -0.00002  -1.05469
   D44        1.02404   0.00052   0.00000   0.00074   0.00074   1.02478
   D45       -3.13815  -0.00043   0.00000  -0.00067  -0.00067  -3.13882
   D46        1.05159  -0.00039   0.00000  -0.00055  -0.00055   1.05104
   D47        3.13030   0.00012   0.00000   0.00022   0.00022   3.13052
   D48       -1.03189  -0.00083   0.00000  -0.00119  -0.00119  -1.03308
         Item               Value     Threshold  Converged?
 Maximum Force            0.126978     0.000450     NO 
 RMS     Force            0.027021     0.000300     NO 
 Maximum Displacement     0.320475     0.001800     NO 
 RMS     Displacement     0.034312     0.001200     NO 
 Predicted change in Energy=-7.463900D-02
 GradGradGradGradGradGradGradGradGradGradGradGradGradGradGradGradGradGrad

                          Input orientation:                          
 ---------------------------------------------------------------------
 Center     Atomic      Atomic             Coordinates (Angstroms)
 Number     Number       Type             X           Y           Z
 ---------------------------------------------------------------------
      1          6           0       -0.301164    1.690382   -0.102503
      2          6           0       -1.641529    1.613764    0.125608
      3          6           0       -0.875669   -0.452842   -0.153128
      4          7           0        0.157448    0.389444   -0.276783
      5          1           0        0.340547    2.576652   -0.154979
      6          1           0       -2.360385    2.423281    0.301986
      7          1           0       -0.827024   -1.525924   -0.237976
      8          7           0       -1.980964    0.264626    0.090257
      9          6           0        1.564187   -0.001737   -0.505169
     10          6           0        2.408158    0.152194    0.753642
     11          1           0        1.936798    0.618892   -1.321196
     12          1           0        1.549965   -1.034626   -0.854781
     13          1           0        3.434284   -0.151974    0.537966
     14          1           0        2.430027    1.188586    1.095347
     15          1           0        2.028086   -0.475096    1.562347
     16          6           0       -3.330374   -0.277814    0.278628
     17          1           0       -3.700300    0.007896    1.262564
     18          1           0       -3.988976    0.112143   -0.496581
     19          1           0       -3.288823   -1.362903    0.207643
     20         17           0       -1.087092    3.787480    0.195961
 ---------------------------------------------------------------------
                    Distance matrix (angstroms):
                    1          2          3          4          5
     1  C    0.000000
     2  C    1.361794   0.000000
     3  C    2.219466   2.221508   0.000000
     4  N    1.390373   2.212962   1.338681   0.000000
     5  H    1.095455   2.221375   3.264509   2.198236   0.000000
     6  H    2.222869   1.096896   3.268577   3.288001   2.743606
     7  H    3.261825   3.263933   1.077530   2.153909   4.266292
     8  N    2.211711   1.391632   1.340027   2.173270   3.285578
     9  C    2.550478   3.644769   2.506058   1.477869   2.875417
    10  C    3.231010   4.350929   3.460032   2.486716   3.313398
    11  H    2.764376   3.985904   3.228462   2.075941   2.782248
    12  H    3.379093   4.261546   2.591234   2.073924   3.872176
    13  H    4.214029   5.389967   4.375365   3.419736   4.182915
    14  H    3.024243   4.206987   3.896229   2.772361   2.802850
    15  H    3.589766   4.460227   3.372705   2.762084   3.887179
    16  C    3.632516   2.540410   2.498525   3.594248   4.670295
    17  H    4.030917   2.847810   3.192961   4.171018   4.993634
    18  H    4.030644   2.855257   3.182743   4.161495   4.993522
    19  H    4.283089   3.403066   2.604166   3.896431   5.368791
    20  Cl   2.259333   2.244413   4.259917   3.649523   1.904578
                    6          7          8          9         10
     6  H    0.000000
     7  H    4.270712   0.000000
     8  N    2.201950   2.155315   0.000000
     9  C    4.683426   2.848233   3.604661   0.000000
    10  C    5.301021   3.777008   4.440395   1.523347   0.000000
    11  H    4.935212   3.662282   4.179301   1.090835   2.178289
    12  H    5.346594   2.504376   3.879254   1.090546   2.175331
    13  H    6.345534   4.544069   5.449670   2.146616   1.091773
    14  H    5.010184   4.444626   4.617440   2.174442   1.091489
    15  H    5.408121   3.535117   4.334364   2.171150   1.091766
    16  C    2.870077   2.844542   1.466504   4.964603   5.774192
    17  H    2.924409   3.586076   2.096743   5.553359   6.131320
    18  H    2.937920   3.570446   2.097556   5.554338   6.518281
    19  H    3.899498   2.507112   2.091202   5.090440   5.920239
    20  Cl   1.869106   5.337434   3.636026   4.677503   5.073764
                   11         12         13         14         15
    11  H    0.000000
    12  H    1.761052   0.000000
    13  H    2.508622   2.503892   0.000000
    14  H    2.531306   3.085479   1.765306   0.000000
    15  H    3.085444   2.526694   1.769508   1.774115   0.000000
    16  C    5.577331   5.067060   6.770797   5.999966   5.513615
    17  H    6.231051   5.756326   7.173067   6.245231   5.756523
    18  H    6.004296   5.667738   7.499655   6.700490   6.386632
    19  H    5.794133   4.964915   6.839271   6.324822   5.558142
    20  Cl   4.635259   5.595609   6.006588   4.464669   5.453521
                   16         17         18         19         20
    16  C    0.000000
    17  H    1.089314   0.000000
    18  H    1.089391   1.785719   0.000000
    19  H    1.088202   1.777993   1.778175   0.000000
    20  Cl   4.643896   4.717176   4.733777   5.601268   0.000000
 Stoichiometry    C6H11ClN2
 Framework group  C1[X(C6H11ClN2)]
 Deg. of freedom    54
 Full point group                 C1      NOp   1
 Largest Abelian subgroup         C1      NOp   1
 Largest concise Abelian subgroup C1      NOp   1
                         Standard orientation:                         
 ---------------------------------------------------------------------
 Center     Atomic      Atomic             Coordinates (Angstroms)
 Number     Number       Type             X           Y           Z
 ---------------------------------------------------------------------
      1          6           0        0.030552   -0.633194   -0.203139
      2          6           0        1.146473    0.112853    0.026248
      3          6           0       -0.575145    1.501877   -0.178057
      4          7           0       -1.033014    0.253215   -0.330589
      5          1           0       -0.067368   -1.721077   -0.286482
      6          1           0        2.181762   -0.218531    0.173021
      7          1           0       -1.168280    2.400260   -0.224636
      8          7           0        0.746056    1.445577    0.038577
      9          6           0       -2.445586   -0.125451   -0.543547
     10          6           0       -3.067343   -0.728024    0.709812
     11          1           0       -2.463111   -0.824500   -1.380771
     12          1           0       -2.969201    0.778627   -0.856213
     13          1           0       -4.108304   -0.986607    0.506090
     14          1           0       -2.548649   -1.638791    1.014458
     15          1           0       -3.046962   -0.019214    1.539947
     16          6           0        1.630340    2.597161    0.244811
     17          1           0        2.113090    2.512092    1.217601
     18          1           0        2.380804    2.623482   -0.544419
     19          1           0        1.037409    3.509067    0.212507
     20         17           0        1.785398   -2.038687    0.019778
 ---------------------------------------------------------------------
 Rotational constants (GHZ):      1.4428805      1.0958121      0.6569588
 Standard basis: 6-311+G(d,p) (5D, 7F)
 There are   281 symmetry adapted cartesian basis functions of A   symmetry.
 There are   272 symmetry adapted basis functions of A   symmetry.
   272 basis functions,   429 primitive gaussians,   281 cartesian basis functions
    39 alpha electrons       39 beta electrons
       nuclear repulsion energy       534.2859407036 Hartrees.
 NAtoms=   20 NActive=   20 NUniq=   20 SFac= 1.00D+00 NAtFMM=   60 NAOKFM=F Big=F
 Integral buffers will be    131072 words long.
 Raffenetti 2 integral format.
 Two-electron integral symmetry is turned on.
 Nuclear repulsion after empirical dispersion term =      534.2546225209 Hartrees.
 One-electron integrals computed using PRISM.
 NBasis=   272 RedAO= T EigKep=  1.62D-05  NBF=   272
 NBsUse=   272 1.00D-06 EigRej= -1.00D+00 NBFU=   272
 Initial guess from the checkpoint file:  "CJS1_emim-cl_B_6-311+g-d-p-_gd3bj_opt-modredundant_difrz.chk"
 B after Tr=     0.000000    0.000000    0.000000
         Rot=    0.998305   -0.000444   -0.000183   -0.058191 Ang=  -6.67 deg.
 ExpMin= 4.38D-02 ExpMax= 1.06D+05 ExpMxC= 3.62D+03 IAcc=2 IRadAn=         4 AccDes= 0.00D+00
 Harris functional with IExCor=  402 and IRadAn=       4 diagonalized for initial guess.
 HarFok:  IExCor=  402 AccDes= 0.00D+00 IRadAn=         4 IDoV= 1 UseB2=F ITyADJ=14
 ICtDFT=  3500011 ScaDFX=  1.000000  1.000000  1.000000  1.000000
 FoFCou: FMM=F IPFlag=           0 FMFlag=      100000 FMFlg1=           0
         NFxFlg=           0 DoJE=T BraDBF=F KetDBF=T FulRan=T
         wScrn=  0.000000 ICntrl=     500 IOpCl=  0 I1Cent=   200000004 NGrid=           0
         NMat0=    1 NMatS0=      1 NMatT0=    0 NMatD0=    1 NMtDS0=    0 NMtDT0=    0
 Petite list used in FoFCou.
 Keep R1 ints in memory in canonical form, NReq=700735283.
 Requested convergence on RMS density matrix=1.00D-09 within 128 cycles.
 Requested convergence on MAX density matrix=1.00D-07.
 Requested convergence on             energy=1.00D-07.
 No special actions if energy rises.
 SCF Done:  E(RB3LYP) =  -804.999588995     A.U. after   14 cycles
            NFock= 14  Conv=0.64D-09     -V/T= 2.0024
 Calling FoFJK, ICntrl=      2127 FMM=F ISym2X=0 I1Cent= 0 IOpClX= 0 NMat=1 NMatS=1 NMatT=0.
 ***** Axes restored to original set *****
 -------------------------------------------------------------------
 Center     Atomic                   Forces (Hartrees/Bohr)
 Number     Number              X              Y              Z
 -------------------------------------------------------------------
      1        6           0.035157545   -0.034252143   -0.009172337
      2        6          -0.033003052   -0.040601240    0.002361961
      3        6           0.000016380   -0.010566365   -0.000597703
      4        7           0.000747320   -0.011087976   -0.000727888
      5        1           0.004662407   -0.029491390   -0.003164086
      6        1          -0.003116009   -0.031621114   -0.001777470
      7        1           0.000141360   -0.000568522    0.000004002
      8        7           0.002356127   -0.011925912   -0.001351099
      9        6          -0.009375877    0.002134756    0.001291239
     10        6           0.001870110    0.000077087   -0.000796844
     11        1           0.000734776    0.000584082    0.000509484
     12        1           0.000895004   -0.000760856    0.000027749
     13        1           0.000817247   -0.000295067    0.000226255
     14        1          -0.001130408   -0.000192830   -0.000257468
     15        1          -0.000587428    0.000168890    0.000047372
     16        6           0.007176122    0.002095535   -0.001092118
     17        1          -0.000677578    0.000483380   -0.000142549
     18        1          -0.000622642    0.000430169    0.000403340
     19        1          -0.000352611   -0.000698486    0.000020345
     20       17          -0.005708792    0.166088001    0.014187817
 -------------------------------------------------------------------
 Cartesian Forces:  Max     0.166088001 RMS     0.024330529

 GradGradGradGradGradGradGradGradGradGradGradGradGradGradGradGradGradGrad
 Berny optimization.
 Using GEDIIS/GDIIS optimizer.
 FormGI is forming the generalized inverse of G from B-inverse, IUseBI=4.
 Internal  Forces:  Max     0.083630038 RMS     0.017086099
 Search for a local minimum.
 Step number   2 out of a maximum of  115
 All quantities printed in internal units (Hartrees-Bohrs-Radians)
 Mixed Optimization -- RFO/linear search
 Update second derivatives using D2CorX and points    1    2
 DE= -6.56D-02 DEPred=-7.46D-02 R= 8.79D-01
 TightC=F SS=  1.41D+00  RLast= 3.00D-01 DXNew= 5.0454D-01 8.9953D-01
 Trust test= 8.79D-01 RLast= 3.00D-01 DXMaxT set to 5.05D-01
 ITU=  1  0
 Use linear search instead of GDIIS.
 Linear search step of   0.600 exceeds DXMaxT=   0.505 but not scaled.
 Quartic linear search produced a step of  2.00000.
 Iteration  1 RMS(Cart)=  0.05759665 RMS(Int)=  0.01550137
 Iteration  2 RMS(Cart)=  0.01242014 RMS(Int)=  0.00311236
 Iteration  3 RMS(Cart)=  0.00010066 RMS(Int)=  0.00311043
 Iteration  4 RMS(Cart)=  0.00000032 RMS(Int)=  0.00311043
 Iteration  1 RMS(Cart)=  0.00000827 RMS(Int)=  0.00001934
 Iteration  2 RMS(Cart)=  0.00000756 RMS(Int)=  0.00002008
 Iteration  3 RMS(Cart)=  0.00000692 RMS(Int)=  0.00002194
 Iteration  4 RMS(Cart)=  0.00000633 RMS(Int)=  0.00002440
 Iteration  5 RMS(Cart)=  0.00000579 RMS(Int)=  0.00002712
 Iteration  6 RMS(Cart)=  0.00000529 RMS(Int)=  0.00002989
 Iteration  7 RMS(Cart)=  0.00000484 RMS(Int)=  0.00003260
 Iteration  8 RMS(Cart)=  0.00000443 RMS(Int)=  0.00003520
 Iteration  9 RMS(Cart)=  0.00000405 RMS(Int)=  0.00003765
 Iteration 10 RMS(Cart)=  0.00000370 RMS(Int)=  0.00003994
 Iteration 11 RMS(Cart)=  0.00000339 RMS(Int)=  0.00004208
 Iteration 12 RMS(Cart)=  0.00000310 RMS(Int)=  0.00004406
 Iteration 13 RMS(Cart)=  0.00000283 RMS(Int)=  0.00004588
 Iteration 14 RMS(Cart)=  0.00000259 RMS(Int)=  0.00004757
 Iteration 15 RMS(Cart)=  0.00000237 RMS(Int)=  0.00004912
 Iteration 16 RMS(Cart)=  0.00000217 RMS(Int)=  0.00005055
 Iteration 17 RMS(Cart)=  0.00000198 RMS(Int)=  0.00005186
 Iteration 18 RMS(Cart)=  0.00000181 RMS(Int)=  0.00005307
 Iteration 19 RMS(Cart)=  0.00000166 RMS(Int)=  0.00005417
 Iteration 20 RMS(Cart)=  0.00000152 RMS(Int)=  0.00005518
 Iteration 21 RMS(Cart)=  0.00000139 RMS(Int)=  0.00005611
 Iteration 22 RMS(Cart)=  0.00000127 RMS(Int)=  0.00005697
 Iteration 23 RMS(Cart)=  0.00000116 RMS(Int)=  0.00005775
 Iteration 24 RMS(Cart)=  0.00000106 RMS(Int)=  0.00005846
 Iteration 25 RMS(Cart)=  0.00000097 RMS(Int)=  0.00005912
 Variable       Old X    -DE/DX   Delta X   Delta X   Delta X     New X
                                 (Linear)    (Quad)   (Total)
    R1        2.57342  -0.00276   0.00174   0.00000  -0.00766   2.56576
    R2        2.62742   0.01167   0.03126   0.00000   0.03096   2.65839
    R3        2.07011   0.02168   0.07247   0.00000   0.06780   2.13791
    R4        2.07283   0.02342   0.07704   0.00000   0.07215   2.14498
    R5        2.62980   0.01246   0.03376   0.00000   0.03343   2.66324
    R6        2.52974   0.00443   0.00904   0.00000   0.00992   2.53966
    R7        2.03624   0.00057   0.00189   0.00000   0.00189   2.03812
    R8        2.53228   0.00409   0.00867   0.00000   0.00953   2.54181
    R9        2.79277  -0.00707  -0.01341   0.00000  -0.01341   2.77935
   R10        3.59913   0.07914   0.30998   0.00000   0.31552   3.91465
   R11        3.53210   0.08363   0.32360   0.00000   0.32883   3.86092
   R12        2.77129  -0.00604  -0.01136   0.00000  -0.01136   2.75993
   R13        2.87871  -0.00013  -0.00059   0.00000  -0.00059   2.87812
   R14        2.06138   0.00020   0.00052   0.00000   0.00052   2.06190
   R15        2.06083   0.00070   0.00147   0.00000   0.00147   2.06230
   R16        2.06315   0.00081   0.00171   0.00000   0.00171   2.06486
   R17        2.06262  -0.00029  -0.00059   0.00000  -0.00059   2.06203
   R18        2.06314   0.00014   0.00023   0.00000   0.00023   2.06337
   R19        2.05851   0.00023   0.00042   0.00000   0.00042   2.05892
   R20        2.05865   0.00024   0.00044   0.00000   0.00044   2.05909
   R21        2.05640   0.00068   0.00144   0.00000   0.00144   2.05784
    A1        1.86817  -0.00045  -0.00336   0.00000  -0.00139   1.86678
    A2        2.25250  -0.02544  -0.05880   0.00000  -0.06800   2.18450
    A3        2.16250   0.02589   0.06216   0.00000   0.06939   2.23189
    A4        2.25294  -0.02714  -0.06387   0.00000  -0.07332   2.17962
    A5        1.86540  -0.00092  -0.00527   0.00000  -0.00320   1.86220
    A6        2.16483   0.02806   0.06914   0.00000   0.07652   2.24135
    A7        2.19504   0.00195   0.00475   0.00000   0.00506   2.20010
    A8        1.89279  -0.00411  -0.01033   0.00000  -0.01096   1.88183
    A9        2.19536   0.00216   0.00558   0.00000   0.00590   2.20126
   A10        1.89925   0.00273   0.00941   0.00000   0.00773   1.90699
   A11        2.19076  -0.00214  -0.00461   0.00000  -0.00377   2.18699
   A12        2.19239  -0.00059  -0.00480   0.00000  -0.00397   2.18842
   A13        1.63726   0.06250   0.18401   0.00000   0.18232   1.81958
   A14        1.65397   0.06248   0.18446   0.00000   0.18211   1.83608
   A15        1.89916   0.00275   0.00955   0.00000   0.00782   1.90698
   A16        2.18924  -0.00191  -0.00441   0.00000  -0.00355   2.18569
   A17        2.19476  -0.00084  -0.00513   0.00000  -0.00427   2.19050
   A18        1.95294  -0.00018  -0.00065   0.00000  -0.00065   1.95229
   A19        1.86518   0.00032   0.00046   0.00000   0.00046   1.86564
   A20        1.86275   0.00083   0.00289   0.00000   0.00288   1.86564
   A21        1.95135  -0.00073  -0.00199   0.00000  -0.00199   1.94936
   A22        1.94749  -0.00043  -0.00137   0.00000  -0.00137   1.94611
   A23        1.87916   0.00030   0.00101   0.00000   0.00101   1.88017
   A24        1.90638   0.00102   0.00294   0.00000   0.00294   1.90932
   A25        1.94523  -0.00127  -0.00332   0.00000  -0.00332   1.94191
   A26        1.94032  -0.00052  -0.00153   0.00000  -0.00154   1.93878
   A27        1.88341   0.00047   0.00136   0.00000   0.00136   1.88477
   A28        1.88962   0.00005   0.00029   0.00000   0.00029   1.88991
   A29        1.89720   0.00031   0.00044   0.00000   0.00043   1.89763
   A30        1.90868   0.00024  -0.00003   0.00000  -0.00003   1.90864
   A31        1.90973   0.00031   0.00015   0.00000   0.00015   1.90988
   A32        1.90214   0.00065   0.00233   0.00000   0.00232   1.90447
   A33        1.92151  -0.00091  -0.00230   0.00000  -0.00230   1.91921
   A34        1.91073  -0.00013  -0.00003   0.00000  -0.00004   1.91069
   A35        1.91092  -0.00015  -0.00006   0.00000  -0.00006   1.91085
   A36        1.62791  -0.07239  -0.24576   0.00000  -0.22307   1.40484
    D1       -3.13278  -0.00030  -0.00109   0.00000  -0.00135  -3.13413
    D2        0.00244  -0.00010  -0.00048   0.00000  -0.00061   0.00182
    D3        0.00319  -0.00008  -0.00035   0.00000  -0.00033   0.00286
    D4        3.13840   0.00012   0.00026   0.00000   0.00041   3.13881
    D5       -0.00359   0.00004   0.00030   0.00000   0.00046  -0.00313
    D6       -3.10465   0.00011   0.00049   0.00000   0.00061  -3.10403
    D7       -3.13992   0.00004   0.00010   0.00000  -0.00003  -3.13995
    D8        0.04221   0.00011   0.00029   0.00000   0.00012   0.04233
    D9        0.01121  -0.00013  -0.00055   0.00000  -0.00069   0.01052
   D10       -3.13686   0.00000   0.00001   0.00000   0.00021  -3.13665
   D11       -0.01511   0.00012   0.00068   0.00000   0.00078  -0.01434
   D12        3.13385   0.00003   0.00033   0.00000   0.00031   3.13415
   D13       -0.00048   0.00011   0.00045   0.00000   0.00053   0.00005
   D14       -3.13444   0.00006   0.00021   0.00000   0.00024  -3.13420
   D15        3.13514   0.00005   0.00041   0.00000   0.00060   3.13574
   D16        0.00118   0.00000   0.00017   0.00000   0.00031   0.00148
   D17       -3.14126   0.00004   0.00011   0.00000   0.00007  -3.14119
   D18       -0.04025  -0.00008  -0.00008   0.00000  -0.00008  -0.04033
   D19        0.00331   0.00002  -0.00004   0.00000  -0.00015   0.00316
   D20        3.10433  -0.00010  -0.00023   0.00000  -0.00030   3.10402
   D21       -0.00261   0.00003   0.00005   0.00000   0.00000  -0.00262
   D22       -0.00177  -0.00008  -0.00025   0.00000  -0.00023  -0.00201
   D23        3.13216  -0.00004   0.00000   0.00000   0.00007   3.13223
   D24       -3.14038  -0.00010  -0.00041   0.00000  -0.00046  -3.14083
   D25       -0.00644  -0.00006  -0.00016   0.00000  -0.00016  -0.00660
   D26        1.25847  -0.00020  -0.00033   0.00000  -0.00033   1.25813
   D27       -0.88295   0.00060   0.00224   0.00000   0.00224  -0.88072
   D28       -2.88971  -0.00030  -0.00051   0.00000  -0.00051  -2.89022
   D29       -1.83592  -0.00018  -0.00042   0.00000  -0.00041  -1.83634
   D30        2.30584   0.00062   0.00215   0.00000   0.00215   2.30799
   D31        0.29908  -0.00028  -0.00059   0.00000  -0.00059   0.29849
   D32       -0.01426   0.00041   0.00206   0.00000   0.00157  -0.01269
   D33        0.01550  -0.00038  -0.00203   0.00000  -0.00151   0.01398
   D34       -1.04386   0.00042   0.00156   0.00000   0.00158  -1.04228
   D35        1.06210  -0.00035  -0.00119   0.00000  -0.00117   1.06093
   D36       -3.13204   0.00005   0.00022   0.00000   0.00025  -3.13180
   D37        2.10662   0.00035   0.00121   0.00000   0.00119   2.10781
   D38       -2.07059  -0.00042  -0.00154   0.00000  -0.00156  -2.07215
   D39        0.01844  -0.00002  -0.00012   0.00000  -0.00014   0.01830
   D40        3.13689   0.00030   0.00120   0.00000   0.00120   3.13809
   D41       -1.06682   0.00075   0.00273   0.00000   0.00272  -1.06410
   D42        1.05276  -0.00009  -0.00009   0.00000  -0.00009   1.05267
   D43       -1.05469   0.00008  -0.00004   0.00000  -0.00004  -1.05473
   D44        1.02478   0.00054   0.00149   0.00000   0.00148   1.02627
   D45       -3.13882  -0.00031  -0.00133   0.00000  -0.00133  -3.14015
   D46        1.05104  -0.00034  -0.00109   0.00000  -0.00109   1.04995
   D47        3.13052   0.00011   0.00043   0.00000   0.00043   3.13095
   D48       -1.03308  -0.00074  -0.00239   0.00000  -0.00238  -1.03547
         Item               Value     Threshold  Converged?
 Maximum Force            0.083630     0.000450     NO 
 RMS     Force            0.017168     0.000300     NO 
 Maximum Displacement     0.633355     0.001800     NO 
 RMS     Displacement     0.068625     0.001200     NO 
 Predicted change in Energy=-4.584184D-02
 GradGradGradGradGradGradGradGradGradGradGradGradGradGradGradGradGradGrad

                          Input orientation:                          
 ---------------------------------------------------------------------
 Center     Atomic      Atomic             Coordinates (Angstroms)
 Number     Number       Type             X           Y           Z
 ---------------------------------------------------------------------
      1          6           0       -0.304571    1.675176   -0.106112
      2          6           0       -1.640655    1.597202    0.122490
      3          6           0       -0.871053   -0.494898   -0.154841
      4          7           0        0.159556    0.358573   -0.279645
      5          1           0        0.294359    2.634041   -0.148205
      6          1           0       -2.322403    2.487751    0.297232
      7          1           0       -0.819405   -1.568992   -0.237781
      8          7           0       -1.978131    0.229307    0.088297
      9          6           0        1.561035   -0.025733   -0.506220
     10          6           0        2.403483    0.134323    0.752469
     11          1           0        1.932524    0.596476   -1.321926
     12          1           0        1.553966   -1.060127   -0.854015
     13          1           0        3.432905   -0.164554    0.540553
     14          1           0        2.416570    1.171699    1.090622
     15          1           0        2.024186   -0.493320    1.561431
     16          6           0       -3.321303   -0.312081    0.277572
     17          1           0       -3.691661   -0.023701    1.260812
     18          1           0       -3.981323    0.076779   -0.497312
     19          1           0       -3.281015   -1.398134    0.208987
     20         17           0       -1.099863    4.122637    0.214442
 ---------------------------------------------------------------------
                    Distance matrix (angstroms):
                    1          2          3          4          5
     1  C    0.000000
     2  C    1.357741   0.000000
     3  C    2.243323   2.246349   0.000000
     4  N    1.406759   2.221863   1.343929   0.000000
     5  H    1.131332   2.211921   3.338936   2.283244   0.000000
     6  H    2.212376   1.135073   3.347683   3.320589   2.658432
     7  H    3.287403   3.290750   1.078529   2.162320   4.349021
     8  N    2.220165   1.409325   1.345068   2.172970   3.317061
     9  C    2.556103   3.644175   2.501726   1.470771   2.967665
    10  C    3.231865   4.346487   3.455680   2.480072   3.392375
    11  H    2.765211   3.981884   3.226954   2.070353   2.865811
    12  H    3.390487   4.268556   2.586319   2.070505   3.966315
    13  H    4.215627   5.386982   4.372271   3.414850   4.261102
    14  H    3.015007   4.192780   3.890654   2.762773   2.859530
    15  H    3.592518   4.457791   3.365710   2.755382   3.961760
    16  C    3.632777   2.548330   2.494820   3.588405   4.683368
    17  H    4.028280   2.851268   3.190913   4.165455   4.993724
    18  H    4.028203   2.859120   3.180862   4.156161   4.994290
    19  H    4.289958   3.416182   2.599254   3.893881   5.400863
    20  Cl   2.593320   2.584324   4.637926   3.999805   2.071542
                    6          7          8          9         10
     6  H    0.000000
     7  H    4.359175   0.000000
     8  N    2.294068   2.163990   0.000000
     9  C    4.695127   2.849597   3.597803   0.000000
    10  C    5.299044   3.777418   4.432684   1.523035   0.000000
    11  H    4.929807   3.665752   4.173339   1.091112   2.176810
    12  H    5.379503   2.504312   3.876377   1.091322   2.174669
    13  H    6.341727   4.545370   5.444168   2.149163   1.092678
    14  H    4.981899   4.443824   4.605013   2.171563   1.091177
    15  H    5.420131   3.532738   4.325604   2.169868   1.091889
    16  C    2.972750   2.846912   1.460492   4.953134   5.761769
    17  H    3.018400   3.589368   2.091647   5.541950   6.118347
    18  H    3.032508   3.574024   2.092602   5.543313   6.506229
    19  H    4.003351   2.507652   2.088214   5.083350   5.912471
    20  Cl   2.043113   5.716451   3.993155   4.980833   5.335687
                   11         12         13         14         15
    11  H    0.000000
    12  H    1.762549   0.000000
    13  H    2.509808   2.505450   0.000000
    14  H    2.526968   3.083301   1.766659   0.000000
    15  H    3.083797   2.525224   1.770528   1.774236   0.000000
    16  C    5.566558   5.060465   6.760935   5.982126   5.500490
    17  H    6.219856   5.750068   7.162266   6.226429   5.742980
    18  H    5.993635   5.662086   7.490406   6.682321   6.374133
    19  H    5.788191   4.961982   6.834352   6.312194   5.549139
    20  Cl   4.897919   5.919920   6.247587   4.673438   5.734206
                   16         17         18         19         20
    16  C    0.000000
    17  H    1.089536   0.000000
    18  H    1.089626   1.784656   0.000000
    19  H    1.088962   1.778772   1.778948   0.000000
    20  Cl   4.960393   5.000442   5.017806   5.936023   0.000000
 Stoichiometry    C6H11ClN2
 Framework group  C1[X(C6H11ClN2)]
 Deg. of freedom    54
 Full point group                 C1      NOp   1
 Largest Abelian subgroup         C1      NOp   1
 Largest concise Abelian subgroup C1      NOp   1
                         Standard orientation:                         
 ---------------------------------------------------------------------
 Center     Atomic      Atomic             Coordinates (Angstroms)
 Number     Number       Type             X           Y           Z
 ---------------------------------------------------------------------
      1          6           0        0.163646   -0.548609   -0.208036
      2          6           0        1.008863    0.488731    0.022169
      3          6           0       -1.065556    1.327689   -0.175361
      4          7           0       -1.128249   -0.005682   -0.331367
      5          1           0        0.471047   -1.634600   -0.285745
      6          1           0        2.131125    0.392811    0.162591
      7          1           0       -1.898421    2.011627   -0.217675
      8          7           0        0.220789    1.656996    0.039308
      9          6           0       -2.359807   -0.781598   -0.542048
     10          6           0       -2.770513   -1.544625    0.710448
     11          1           0       -2.171341   -1.454135   -1.380320
     12          1           0       -3.131424   -0.074209   -0.850579
     13          1           0       -3.688720   -2.102306    0.510863
     14          1           0       -2.001000   -2.258237    1.009235
     15          1           0       -2.957960   -0.862488    1.542177
[...]
 Iteration  3 RMS(Cart)=  0.00075889 RMS(Int)=  0.24782635
 Iteration  4 RMS(Cart)=  0.00074477 RMS(Int)=  0.22400949
 Iteration  5 RMS(Cart)=  0.00064125 RMS(Int)=  0.19898744
 Iteration  6 RMS(Cart)=  0.00064104 RMS(Int)=  0.17251054
 Iteration  7 RMS(Cart)=  0.00035037 RMS(Int)=  0.14647868
 Iteration  8 RMS(Cart)=  0.00098244 RMS(Int)=  0.12274402
 Iteration  9 RMS(Cart)=  0.00160347 RMS(Int)=  0.10207378
 Iteration 10 RMS(Cart)=  0.00194129 RMS(Int)=  0.08802551
 New curvilinear step failed:  FormB failed.
 ITry=10 IFail=2 DXMaxC= 4.11D-02 DCOld= 1.00D+10 DXMaxT= 6.02D-01 DXLimC= 3.00D+00 Rises=T
 Variable       Old X    -DE/DX   Delta X   Delta X   Delta X     New X
                                 (Linear)    (Quad)   (Total)
    R1        2.57094   0.00551   0.01378   0.00000   0.00103   2.57197
    R2        2.61395   0.00182  -0.00382   0.00000  -0.00450   2.60945
    R3        2.17426  -0.01493  -0.00070   0.00000   0.00000   2.17426
    R4        2.03878  -0.00069  -0.00119   0.00000  -0.00622   2.03256
    R5        2.61694   0.00284  -0.00143   0.00000  -0.00111   2.61583
    R6        2.51435   0.00428   0.00714   0.00000   0.00301   2.51736
    R7        2.03340   0.00010  -0.00013   0.00000  -0.00068   2.03273
    R8        2.53535  -0.00054   0.00019   0.00000  -0.00217   2.53317
    R9        2.79959  -0.00022   0.00120   0.00000   0.00321   2.80280
   R10        3.86715  -0.00130  -0.00126   0.00000   0.00000   3.86715
   R11        8.74927  -0.00319  -0.06607   0.00000  -0.04885   8.70043
   R12        2.75874   0.00064   0.00217   0.00000  -0.00017   2.75857
   R13        2.87782  -0.00029  -0.00009   0.00000   0.00269   2.88051
   R14        2.06265  -0.00019  -0.00003   0.00000   0.00025   2.06290
   R15        2.06316   0.00012   0.00054   0.00000  -0.00063   2.06253
   R16        2.06500  -0.00024  -0.00082   0.00000  -0.00067   2.06433
   R17        2.06691   0.00030   0.00252   0.00000   0.00032   2.06723
   R18        2.06543   0.00018   0.00034   0.00000   0.00289   2.06832
   R19        2.05950   0.00010  -0.00020   0.00000  -0.00110   2.05841
   R20        2.05982   0.00023   0.00052   0.00000   0.00192   2.06174
   R21        2.05663   0.00009  -0.00005   0.00000  -0.00066   2.05598
    A1        1.84929  -0.00101  -0.00141   0.00000  -0.00080   1.84850
    A2        2.39610  -0.00083  -0.01757   0.00000   0.00003   2.39612
    A3        2.03770   0.00183   0.01900   0.00000   0.00083   2.03853
    A4        2.29621  -0.00029  -0.01626   0.00000  -0.02544   2.27077
    A5        1.87807   0.00056  -0.00060   0.00000   0.00053   1.87860
    A6        2.10889  -0.00027   0.01686   0.00000   0.02491   2.13380
    A7        2.20675  -0.00072  -0.00056   0.00000   0.00035   2.20711
    A8        1.88217   0.00181   0.00091   0.00000  -0.00132   1.88086
    A9        2.19417  -0.00108  -0.00033   0.00000   0.00100   2.19518
   A10        1.92035  -0.00063   0.00040   0.00000   0.00129   1.92164
   A11        2.16395   0.00018  -0.00243   0.00000   0.00126   2.16521
   A12        2.19882   0.00046   0.00204   0.00000  -0.00265   2.19617
   A13        3.14159  -0.00630   0.00000   0.00000   0.00000   3.14159
   A14        1.14383  -0.00232   0.02527   0.00000   0.02365   1.16748
   A15        1.89479  -0.00071   0.00071   0.00000   0.00031   1.89510
   A16        2.19362   0.00018   0.00167   0.00000   0.00180   2.19543
   A17        2.19441   0.00053  -0.00237   0.00000  -0.00202   2.19238
   A18        1.95308   0.00026  -0.00093   0.00000   0.00114   1.95422
   A19        1.86231   0.00002   0.00114   0.00000  -0.00105   1.86126
   A20        1.85655  -0.00002   0.00086   0.00000   0.00250   1.85905
   A21        1.93125   0.00001  -0.00058   0.00000   0.00662   1.93787
   A22        1.96144  -0.00045   0.00025   0.00000  -0.00948   1.95196
   A23        1.89463   0.00021  -0.00064   0.00000   0.00047   1.89510
   A24        1.89539   0.00011  -0.00040   0.00000  -0.00025   1.89514
   A25        1.93035  -0.00030   0.00248   0.00000   0.00512   1.93547
   A26        1.93737   0.00007  -0.00013   0.00000  -0.00256   1.93481
   A27        1.88212   0.00002   0.00069   0.00000   0.00148   1.88360
   A28        1.89200   0.00005   0.00047   0.00000  -0.00041   1.89159
   A29        1.92509   0.00006  -0.00307   0.00000  -0.00333   1.92176
   A30        1.91337   0.00012  -0.00072   0.00000  -0.00090   1.91247
   A31        1.91620   0.00016  -0.00006   0.00000  -0.00099   1.91521
   A32        1.90495   0.00019   0.00013   0.00000   0.00082   1.90577
   A33        1.91379  -0.00008  -0.00001   0.00000  -0.00017   1.91362
   A34        1.90643  -0.00019   0.00024   0.00000   0.00096   1.90739
   A35        1.90900  -0.00020   0.00042   0.00000   0.00030   1.90930
   A36        0.44704  -0.00204   0.00856   0.00000   0.00177   0.44881
    D1       -3.12706  -0.00020  -0.00295   0.00000  -0.00745  -3.13451
    D2        0.00881  -0.00040  -0.00040   0.00000  -0.00785   0.00096
    D3       -0.00118  -0.00112  -0.00070   0.00000  -0.00138  -0.00257
    D4        3.13468  -0.00132   0.00185   0.00000  -0.00178   3.13290
    D5       -0.01348   0.00078   0.00138   0.00000   0.00512  -0.00837
    D6        3.14000   0.00031  -0.00020   0.00000   0.01194  -3.13124
    D7        3.14005   0.00150  -0.00007   0.00000   0.00051   3.14056
    D8        0.01035   0.00103  -0.00164   0.00000   0.00734   0.01768
    D9        2.62217   0.00160  -1.91054   0.00000  -1.46368   1.15848
   D10       -0.53635   0.00059  -1.90825   0.00000  -1.45715  -1.99351
   D11        0.00061  -0.00095   0.00038   0.00000   0.00070   0.00131
   D12       -3.13463  -0.00073  -0.00243   0.00000   0.00126  -3.13337
   D13       -0.00138  -0.00009  -0.00066   0.00000   0.00802   0.00665
   D14       -3.11521  -0.00012  -0.00127   0.00000   0.00439  -3.11082
   D15        3.13523  -0.00026   0.00153   0.00000   0.00747  -3.14049
   D16        0.02139  -0.00030   0.00092   0.00000   0.00384   0.02523
   D17        3.14096  -0.00019   0.00039   0.00000   0.00360  -3.13862
   D18       -0.01282   0.00028   0.00197   0.00000  -0.00334  -0.01616
   D19        0.01279  -0.00081  -0.00177   0.00000  -0.00018   0.01260
   D20       -3.14099  -0.00033  -0.00019   0.00000  -0.00712   3.13507
   D21       -0.00263  -0.00139   0.00000   0.00000   0.00086  -0.00177
   D22       -0.00701   0.00056   0.00152   0.00000  -0.00479  -0.01180
   D23        3.10681   0.00059   0.00220   0.00000  -0.00109   3.10572
   D24       -3.13531  -0.00006  -0.00062   0.00000  -0.00853   3.13935
   D25       -0.02149  -0.00003   0.00007   0.00000  -0.00483  -0.02632
   D26        1.01603   0.00091  -0.02551   0.00000  -0.01117   1.00486
   D27       -1.09873   0.00073  -0.02498   0.00000  -0.01931  -1.11805
   D28       -3.11892   0.00049  -0.02519   0.00000  -0.02054  -3.13946
   D29       -2.11176   0.00037  -0.02732   0.00000  -0.00329  -2.11505
   D30        2.05667   0.00019  -0.02679   0.00000  -0.01144   2.04523
   D31        0.03648  -0.00005  -0.02701   0.00000  -0.01267   0.02381
   D32       -2.62169   0.00219   1.91082   0.00000   1.46426  -1.15743
   D33       -0.00045   0.00331  -0.00028   0.00000  -0.00054  -0.00099
   D34       -0.99818  -0.00003   0.00231   0.00000   0.00771  -0.99047
   D35        1.10524   0.00005   0.00181   0.00000   0.00631   1.11155
   D36       -3.08564   0.00001   0.00237   0.00000   0.00658  -3.07906
   D37        2.17583  -0.00006   0.00154   0.00000   0.00342   2.17925
   D38       -2.00393   0.00002   0.00104   0.00000   0.00202  -2.00191
   D39        0.08837  -0.00002   0.00160   0.00000   0.00229   0.09067
   D40        3.12364  -0.00012   0.00728   0.00000   0.00420   3.12784
   D41       -1.09746  -0.00020   0.00932   0.00000   0.00885  -1.08861
   D42        1.04534  -0.00029   0.00704   0.00000   0.00638   1.05172
   D43       -1.08514   0.00008   0.00772   0.00000   0.00806  -1.07708
   D44        0.97694   0.00000   0.00976   0.00000   0.01271   0.98965
   D45        3.11974  -0.00009   0.00748   0.00000   0.01025   3.12999
   D46        1.03600   0.00004   0.00666   0.00000   0.00677   1.04277
   D47        3.09808  -0.00004   0.00870   0.00000   0.01142   3.10950
   D48       -1.04230  -0.00013   0.00642   0.00000   0.00896  -1.03335
         Item               Value     Threshold  Converged?
 Maximum Force            0.014868     0.000450     NO 
 RMS     Force            0.001928     0.000300     NO 
 Maximum Displacement     0.041095     0.001800     NO 
 RMS     Displacement     0.007937     0.001200     NO 
 Predicted change in Energy=-1.165358D-04
 GradGradGradGradGradGradGradGradGradGradGradGradGradGradGradGradGradGrad

                          Input orientation:                          
 ---------------------------------------------------------------------
 Center     Atomic      Atomic             Coordinates (Angstroms)
 Number     Number       Type             X           Y           Z
 ---------------------------------------------------------------------
      1          6           0       -0.535834    1.607648    0.078927
      2          6           0       -1.871535    1.418081    0.258832
      3          6           0       -0.975768   -0.556837   -0.180375
      4          7           0       -0.010593    0.361134   -0.198756
      5          1           0        0.202338    2.490084    0.093609
      6          1           0       -2.647656    2.127327    0.485752
      7          1           0       -0.858643   -1.611142   -0.358681
      8          7           0       -2.130203    0.068826    0.089360
      9          6           0        1.427955    0.103533   -0.451821
     10          6           0        2.301506    0.553966    0.713299
     11          1           0        1.685889    0.641780   -1.365842
     12          1           0        1.522955   -0.967317   -0.640245
     13          1           0        3.343216    0.326641    0.475615
     14          1           0        2.219394    1.633812    0.867812
     15          1           0        2.032626    0.021052    1.630715
     16          6           0       -3.443827   -0.563951    0.159501
     17          1           0       -3.901986   -0.347916    1.123820
     18          1           0       -4.079156   -0.183681   -0.641802
     19          1           0       -3.328729   -1.640206    0.049413
     20         17           0        1.515254    4.059589    0.119722
 ---------------------------------------------------------------------
                    Distance matrix (angstroms):
                    1          2          3          4          5
     1  C    0.000000
     2  C    1.361029   0.000000
     3  C    2.223909   2.212601   0.000000
     4  N    1.380863   2.188523   1.332130   0.000000
     5  H    1.150568   2.340393   3.278220   2.159454   0.000000
     6  H    2.212548   1.075586   3.231667   3.246859   2.899627
     7  H    3.264401   3.253224   1.075672   2.152821   4.260317
     8  N    2.215873   1.384239   1.340497   2.158982   3.362031
     9  C    2.529925   3.622113   2.507520   1.483179   2.737746
    10  C    3.092438   4.285734   3.573942   2.492956   2.922170
    11  H    2.820694   3.987164   3.150624   2.078196   2.783370
    12  H    3.374354   4.245119   2.573633   2.076406   3.773088
    13  H    4.104311   5.332154   4.456958   3.421111   3.832953
    14  H    2.866061   4.141630   4.013315   2.780309   2.324028
    15  H    3.394454   4.367635   3.558712   2.763578   3.436389
    16  C    3.630256   2.531881   2.491362   3.573686   4.756678
    17  H    4.030758   2.826602   3.210503   4.170720   5.095199
    18  H    4.035275   2.872347   3.159617   4.128719   5.101082
    19  H    4.283653   3.394170   2.600561   3.882908   5.434122
    20  Cl   3.196974   4.297354   5.254201   4.013503   2.046406
                    6          7          8          9         10
     6  H    0.000000
     7  H    4.229632   0.000000
     8  N    2.159238   2.154042   0.000000
     9  C    4.646009   2.859602   3.599246   0.000000
    10  C    5.198216   3.977861   4.501634   1.524299   0.000000
    11  H    4.941140   3.544668   4.124130   1.091638   2.170144
    12  H    5.314009   2.483103   3.866714   1.091444   2.180029
    13  H    6.255647   4.701774   5.493084   2.139658   1.092396
    14  H    4.906904   4.637707   4.687661   2.170152   1.093931
    15  H    5.258553   3.870554   4.439279   2.170112   1.094507
    16  C    2.825475   2.836952   1.459773   4.955150   5.879225
    17  H    2.847332   3.613237   2.093561   5.576265   6.282136
    18  H    2.943014   3.534049   2.096849   5.517868   6.564547
    19  H    3.853383   2.503738   2.087786   5.090963   6.079036
    20  Cl   4.604067   6.166153   5.405225   3.998081   3.641417
                   11         12         13         14         15
    11  H    0.000000
    12  H    1.772634   0.000000
    13  H    2.497401   2.496562   0.000000
    14  H    2.501593   3.086282   1.767905   0.000000
    15  H    3.079754   2.528615   1.773495   1.793850   0.000000
    16  C    5.485840   5.046902   6.852520   6.115876   5.700722
    17  H    6.196956   5.738081   7.305351   6.439261   5.967638
    18  H    5.868676   5.656654   7.523341   6.727106   6.523813
    19  H    5.688303   4.946437   6.968858   6.493892   5.831331
    20  Cl   3.730608   5.084033   4.171691   2.634358   4.342874
                   16         17         18         19         20
    16  C    0.000000
    17  H    1.089262   0.000000
    18  H    1.091025   1.782073   0.000000
    19  H    1.087976   1.775666   1.778310   0.000000
    20  Cl   6.780206   7.055551   7.062767   7.480426   0.000000
 Stoichiometry    C6H11ClN2
 Framework group  C1[X(C6H11ClN2)]
 Deg. of freedom    54
 Full point group                 C1      NOp   1
 Largest Abelian subgroup         C1      NOp   1
 Largest concise Abelian subgroup C1      NOp   1
                         Standard orientation:                         
 ---------------------------------------------------------------------
 Center     Atomic      Atomic             Coordinates (Angstroms)
 Number     Number       Type             X           Y           Z
 ---------------------------------------------------------------------
      1          6           0       -0.018020    0.596661   -0.024077
      2          6           0       -1.175507    1.289227    0.157518
      3          6           0       -1.718386   -0.826212   -0.197170
      4          7           0       -0.392030   -0.713489   -0.248591
      5          1           0        1.109604    0.824583   -0.042015
      6          1           0       -1.333906    2.335152    0.352035
      7          1           0       -2.288950   -1.728072   -0.331987
      8          7           0       -2.223461    0.392269    0.041861
      9          6           0        0.565038   -1.821690   -0.484670
     10          6           0        1.553971   -1.975725    0.665013
     11          1           0        1.082390   -1.594354   -1.418660
     12          1           0       -0.033354   -2.722989   -0.629021
     13          1           0        2.220367   -2.811914    0.441331
     14          1           0        2.167298   -1.076626    0.775172
     15          1           0        1.031472   -2.191947    1.602130
     16          6           0       -3.642776    0.721473    0.131885
     17          1           0       -3.844553    1.209415    1.084613
     18          1           0       -3.919147    1.387364   -0.686983
     19          1           0       -4.227126   -0.193896    0.066112
     20         17           0        3.115202    1.229966   -0.073919
 ---------------------------------------------------------------------
 Rotational constants (GHZ):      2.1005667      0.6814890      0.5340081
 Standard basis: 6-311+G(d,p) (5D, 7F)
 There are   281 symmetry adapted cartesian basis functions of A   symmetry.
 There are   272 symmetry adapted basis functions of A   symmetry.
   272 basis functions,   429 primitive gaussians,   281 cartesian basis functions
    39 alpha electrons       39 beta electrons
       nuclear repulsion energy       507.4977724295 Hartrees.
 NAtoms=   20 NActive=   20 NUniq=   20 SFac= 1.00D+00 NAtFMM=   60 NAOKFM=F Big=F
 Integral buffers will be    131072 words long.
 Raffenetti 2 integral format.
 Two-electron integral symmetry is turned on.
 Nuclear repulsion after empirical dispersion term =      507.4661091087 Hartrees.
 One-electron integrals computed using PRISM.
 NBasis=   272 RedAO= T EigKep=  1.03D-05  NBF=   272
 NBsUse=   272 1.00D-06 EigRej= -1.00D+00 NBFU=   272
 Lowest energy guess from the checkpoint file:  "CJS1_emim-cl_B_6-311+g-d-p-_gd3bj_opt-modredundant_difrz.chk"
 B after Tr=     0.000000    0.000000    0.000000
         Rot=    0.999996   -0.002219    0.000835   -0.001305 Ang=  -0.31 deg.
 B after Tr=     0.000000    0.000000    0.000000
         Rot=    1.000000    0.000305   -0.000120    0.000201 Ang=   0.04 deg.
 Keep R1 ints in memory in canonical form, NReq=700735283.
 Requested convergence on RMS density matrix=1.00D-09 within 128 cycles.
 Requested convergence on MAX density matrix=1.00D-07.
 Requested convergence on             energy=1.00D-07.
 No special actions if energy rises.
 SCF Done:  E(RB3LYP) =  -805.099930075     A.U. after   12 cycles
            NFock= 12  Conv=0.10D-08     -V/T= 2.0034
 Calling FoFJK, ICntrl=      2127 FMM=F ISym2X=0 I1Cent= 0 IOpClX= 0 NMat=1 NMatS=1 NMatT=0.
 ***** Axes restored to original set *****
 -------------------------------------------------------------------
 Center     Atomic                   Forces (Hartrees/Bohr)
 Number     Number              X              Y              Z
 -------------------------------------------------------------------
      1        6           0.019544581    0.009986488   -0.002117251
      2        6          -0.000339742    0.003971973   -0.000032079
      3        6          -0.001932577    0.001206944   -0.000882902
      4        7           0.005955679   -0.003625146    0.000808031
      5        1          -0.016845254   -0.003688294    0.001818734
      6        1          -0.000846755   -0.000388210    0.000041650
      7        1          -0.000172653   -0.000303041   -0.000083929
      8        7          -0.002437383   -0.003342680    0.000514995
      9        6          -0.000408199    0.001395730    0.000333959
     10        6          -0.000585384   -0.001517825    0.000465188
     11        1           0.000388879    0.000530692    0.000853531
     12        1          -0.000428768   -0.000277712   -0.000516089
     13        1          -0.000043066    0.000065198   -0.000003449
     14        1          -0.000015598    0.000222978   -0.000664139
     15        1           0.000030521    0.000418637   -0.000586465
     16        6          -0.000606719    0.000757648   -0.000066398
     17        1          -0.000333081   -0.000134394    0.000384522
     18        1           0.000103036   -0.000357522    0.000322227
     19        1          -0.000097166   -0.000293657   -0.000010305
     20       17          -0.000930353   -0.004627807   -0.000579832
 -------------------------------------------------------------------
 Cartesian Forces:  Max     0.019544581 RMS     0.003890927

 GradGradGradGradGradGradGradGradGradGradGradGradGradGradGradGradGradGrad
 Berny optimization.
 Using GEDIIS/GDIIS optimizer.
 Bend failed for angle     1 -     5 -    20
 Tors failed for dihedral     2 -     1 -     5 -    20
 Tors failed for dihedral     4 -     1 -     5 -    20
 Tors failed for dihedral     1 -     5 -    20 -     6
 FormBX had a problem.
 Error termination via Lnk1e in /apps/gaussian/g09_d01/g09/l103.exe at Thu Apr 16 22:50:12 2015.
 Job cpu time:       0 days  6 hours  2 minutes 44.3 seconds.
 File lengths (MBytes):  RWF=     35 Int=      0 D2E=      0 Chk=      6 Scr=      1
