 Entering Gaussian System, Link 0=g09
 Input=/work/cjs14/CJS1_emim-cl_B_6-311+g-d-p-_gd3bj_pop-nbo-full-_unfrz.com
 Output=/work/cjs14/CJS1_emim-cl_B_6-311+g-d-p-_gd3bj_pop-nbo-full-_unfrz.log
 Initial command:
 /apps/gaussian/g09_d01/g09/l1.exe /tmp/pbs.9416795.cx1b/Gau-21206.inp -scrdir=/tmp/pbs.9416795.cx1b/
 Entering Link 1 = /apps/gaussian/g09_d01/g09/l1.exe PID=     21207.
  
 Copyright (c) 1988,1990,1992,1993,1995,1998,2003,2009,2013,
            Gaussian, Inc.  All Rights Reserved.
  
 This is part of the Gaussian(R) 09 program.  It is based on
 the Gaussian(R) 03 system (copyright 2003, Gaussian, Inc.),
 the Gaussian(R) 98 system (copyright 1998, Gaussian, Inc.),
 the Gaussian(R) 94 system (copyright 1995, Gaussian, Inc.),
 the Gaussian 92(TM) system (copyright 1992, Gaussian, Inc.),
 the Gaussian 90(TM) system (copyright 1990, Gaussian, Inc.),
 the Gaussian 88(TM) system (copyright 1988, Gaussian, Inc.),
 the Gaussian 86(TM) system (copyright 1986, Carnegie Mellon
 University), and the Gaussian 82(TM) system (copyright 1983,
 Carnegie Mellon University). Gaussian is a federally registered
 trademark of Gaussian, Inc.
  
 This software contains proprietary and confidential information,
 including trade secrets, belonging to Gaussian, Inc.
  
 This software is provided under written license and may be
 used, copied, transmitted, or stored only in accord with that
 written license.
  
 The following legend is applicable only to US Government
 contracts under FAR:
  
                    RESTRICTED RIGHTS LEGEND
  
 Use, reproduction and disclosure by the US Government is
 subject to restrictions as set forth in subparagraphs (a)
 and (c) of the Commercial Computer Software - Restricted
 Rights clause in FAR 52.227-19.
  
 Gaussian, Inc.
 340 Quinnipiac St., Bldg. 40, Wallingford CT 06492
  
  
 ---------------------------------------------------------------
 Warning -- This program may not be used in any manner that
 competes with the business of Gaussian, Inc. or will provide
 assistance to any competitor of Gaussian, Inc.  The licensee
 of this program is prohibited from giving any competitor of
 Gaussian, Inc. access to this program.  By using this program,
 the user acknowledges that Gaussian, Inc. is engaged in the
 business of creating and licensing software in the field of
 computational chemistry and represents and warrants to the
 licensee that it is not a competitor of Gaussian, Inc. and that
 it will not use this program in any manner prohibited above.
 ---------------------------------------------------------------
  

 Cite this work as:
 Gaussian 09, Revision D.01,
 M. J. Frisch, G. W. Trucks, H. B. Schlegel, G. E. Scuseria, 
 M. A. Robb, J. R. Cheeseman, G. Scalmani, V. Barone, B. Mennucci, 
 G. A. Petersson, H. Nakatsuji, M. Caricato, X. Li, H. P. Hratchian, 
 A. F. Izmaylov, J. Bloino, G. Zheng, J. L. Sonnenberg, M. Hada, 
 M. Ehara, K. Toyota, R. Fukuda, J. Hasegawa, M. Ishida, T. Nakajima, 
 Y. Honda, O. Kitao, H. Nakai, T. Vreven, J. A. Montgomery, Jr., 
 J. E. Peralta, F. Ogliaro, M. Bearpark, J. J. Heyd, E. Brothers, 
 K. N. Kudin, V. N. Staroverov, T. Keith, R. Kobayashi, J. Normand, 
 K. Raghavachari, A. Rendell, J. C. Burant, S. S. Iyengar, J. Tomasi, 
 M. Cossi, N. Rega, J. M. Millam, M. Klene, J. E. Knox, J. B. Cross, 
 V. Bakken, C. Adamo, J. Jaramillo, R. Gomperts, R. E. Stratmann, 
 O. Yazyev, A. J. Austin, R. Cammi, C. Pomelli, J. W. Ochterski, 
 R. L. Martin, K. Morokuma, V. G. Zakrzewski, G. A. Voth, 
 P. Salvador, J. J. Dannenberg, S. Dapprich, A. D. Daniels, 
 O. Farkas, J. B. Foresman, J. V. Ortiz, J. Cioslowski, 
 and D. J. Fox, Gaussian, Inc., Wallingford CT, 2013.
 
 ******************************************
 Gaussian 09:  ES64L-G09RevD.01 24-Apr-2013
                20-Apr-2015 
 ******************************************
 %nprocshared=8
 Will use up to    8 processors via shared memory.
 %mem=15000MB
 %chk=CJS1_emim-cl_B_6-311+g-d-p-_gd3bj_pop-nbo-full-_unfrz.chk
 ----------------------------------------------------------------------
 # pop(nbo,full) GFInput b3lyp/6-311+g(d,p) geom=checkpoint integral=gr
 id=ultrafine scf=conver=9 empiricaldispersion=gd3bj
 ----------------------------------------------------------------------
 1/29=2,38=1/1;
 2/12=2,40=1/2;
 3/5=4,6=6,7=111,11=2,14=-4,16=1,24=10,25=1,30=1,74=-5,75=-5,124=41/1,2,3;
 4//1;
 5/5=2,6=9,38=5/2;
 6/7=3,28=1,40=1/1,7;
 99/5=1,9=1/99;
 ----------------------------------------------------------------------
 Emim+ (optimised with b3lyp+gd3bj / aug-cc-pvtz) and Cl- in the back p
 osition created on; Thu Apr 16 19:11:52 BST 2015, from; CJS1_emim-cl_B
 _init.com created on; Sun Apr 19 10:11:24 BST 2015, from; CJS1_emim-cl
 _B_6-311+g-d-p-_gd3bj_opt-modredundant_difrz_err.com created on; Mon A
 pr 20 15:19:43 BST 2015, from; CJS1_emim-cl_B_6-311+g-d-p-_gd3bj_opt-m
 odredundant_unfrz.com
 ----------------------------------------------------------------------
 Structure from the checkpoint file:  "CJS1_emim-cl_B_6-311+g-d-p-_gd3bj_pop-nbo-full-_unfrz.chk"
 Charge =  0 Multiplicity = 1
 Redundant internal coordinates found in file.
 C,0,-0.0113829866,0.7578307703,-0.1134322391
 C,0,-1.2082310823,1.376138746,0.0963740994
 C,0,-1.6074771549,-0.7801397595,-0.1750769045
 N,0,-0.2926193994,-0.5867347272,-0.2826436079
 H,0,1.0347928871,1.0914802697,-0.203867938
 H,0,-1.44359872,2.4131295981,0.2607225568
 H,0,-2.115886279,-1.7248516341,-0.2604228135
 N,0,-2.1955880209,0.4028664824,0.054680339
 C,0,0.7207698774,-1.6468794134,-0.5002264302
 C,0,1.3576062916,-2.080353207,0.8121843236
 H,0,1.4849148358,-1.2061062797,-1.1462813868
 H,0,0.2080057276,-2.4665327452,-1.0078735531
 H,0,2.0668425453,-2.885626,0.6105343416
 H,0,1.9210447595,-1.2473607832,1.2348841849
 H,0,0.613193063,-2.4407616122,1.528699949
 C,0,-3.6287712734,0.6300610522,0.2158227299
 H,0,-3.8218330099,1.0878163534,1.1861486062
 H,0,-3.9914475854,1.2840084174,-0.5776390994
 H,0,-4.1499822324,-0.3239541579,0.1604150364
 Cl,0,3.0724846741,0.6786213066,-0.7427580292
 Recover connectivity data from disk.
                          Input orientation:                          
 ---------------------------------------------------------------------
 Center     Atomic      Atomic             Coordinates (Angstroms)
 Number     Number       Type             X           Y           Z
 ---------------------------------------------------------------------
      1          6           0       -0.011383    0.757831   -0.113432
      2          6           0       -1.208231    1.376139    0.096374
      3          6           0       -1.607477   -0.780140   -0.175077
      4          7           0       -0.292619   -0.586735   -0.282644
      5          1           0        1.034793    1.091480   -0.203868
      6          1           0       -1.443599    2.413130    0.260723
      7          1           0       -2.115886   -1.724852   -0.260423
      8          7           0       -2.195588    0.402866    0.054680
      9          6           0        0.720770   -1.646879   -0.500226
     10          6           0        1.357606   -2.080353    0.812184
     11          1           0        1.484915   -1.206106   -1.146281
     12          1           0        0.208006   -2.466533   -1.007874
     13          1           0        2.066843   -2.885626    0.610534
     14          1           0        1.921045   -1.247361    1.234884
     15          1           0        0.613193   -2.440762    1.528700
     16          6           0       -3.628771    0.630061    0.215823
     17          1           0       -3.821833    1.087816    1.186149
     18          1           0       -3.991448    1.284008   -0.577639
     19          1           0       -4.149982   -0.323954    0.160415
     20         17           0        3.072485    0.678621   -0.742758
 ---------------------------------------------------------------------
                    Distance matrix (angstroms):
                    1          2          3          4          5
     1  C    0.000000
     2  C    1.363367   0.000000
     3  C    2.217357   2.209665   0.000000
     4  N    1.384046   2.198834   1.333352   0.000000
     5  H    1.101810   2.280862   3.238114   2.141176   0.000000
     6  H    2.220641   1.075992   3.227034   3.258709   2.846933
     7  H    3.257952   3.250736   1.076218   2.149443   4.226311
     8  N    2.219237   1.387037   1.340957   2.171264   3.313065
     9  C    2.543283   3.635329   2.505533   1.482635   2.772193
    10  C    3.284233   4.363856   3.384813   2.480482   3.346207
    11  H    2.676328   3.932584   3.269186   2.071019   2.523818
    12  H    3.353308   4.241605   2.614087   2.076108   3.740248
    13  H    4.256516   5.399362   4.307074   3.413170   4.188765
    14  H    3.094031   4.239260   3.828414   2.763987   2.885416
    15  H    3.649341   4.465184   3.254519   2.745702   3.956801
    16  C    3.634588   2.535728   2.495416   3.585941   4.705091
    17  H    4.039472   2.846340   3.200870   4.173346   5.051631
    18  H    4.041443   2.865148   3.179006   4.155482   5.043795
    19  H    4.286403   3.398281   2.604802   3.891607   5.386840
    20  Cl   3.148423   4.417601   4.934804   3.624466   2.147800
                    6          7          8          9         10
     6  H    0.000000
     7  H    4.224506   0.000000
     8  N    2.156177   2.152400   0.000000
     9  C    4.663390   2.847842   3.607565   0.000000
    10  C    5.323744   3.652673   4.400612   1.521802   0.000000
    11  H    4.863612   3.744277   4.192518   1.093428   2.148512
    12  H    5.305491   2.551323   3.890981   1.092000   2.187082
    13  H    6.365719   4.427322   5.412160   2.140139   1.091853
    14  H    5.066459   4.331368   4.589422   2.147297   1.090878
    15  H    5.422031   3.340862   4.260071   2.181367   1.094276
    16  C    2.820696   2.839233   1.459999   4.961420   5.706659
    17  H    2.875564   3.593595   2.096199   5.563961   6.083070
    18  H    2.910206   3.559718   2.097940   5.549873   6.470156
    19  H    3.850481   2.505427   2.087847   5.090266   5.817497
    20  Cl   4.940698   5.738338   5.335217   3.316223   3.601471
                   11         12         13         14         15
    11  H    0.000000
    12  H    1.799536   0.000000
    13  H    2.499165   2.500032   0.000000
    14  H    2.421128   3.074223   1.759256   0.000000
    15  H    3.072425   2.568861   1.775959   1.794717   0.000000
    16  C    5.601484   5.080077   6.704914   5.946735   5.398876
    17  H    6.234090   5.804027   7.127137   6.199683   5.677822
    18  H    6.042729   5.646864   7.449865   6.682113   6.285960
    19  H    5.851300   4.994757   6.738967   6.234142   5.388962
    20  Cl   2.497080   4.262337   3.942915   2.991035   4.575826
                   16         17         18         19         20
    16  C    0.000000
    17  H    1.090112   0.000000
    18  H    1.090304   1.782753   0.000000
    19  H    1.088520   1.775643   1.776345   0.000000
    20  Cl   6.769643   7.170756   7.091748   7.347442   0.000000
 Stoichiometry    C6H11ClN2
 Framework group  C1[X(C6H11ClN2)]
 Deg. of freedom    54
 Full point group                 C1      NOp   1
 Largest Abelian subgroup         C1      NOp   1
 Largest concise Abelian subgroup C1      NOp   1
                         Standard orientation:                         
 ---------------------------------------------------------------------
 Center     Atomic      Atomic             Coordinates (Angstroms)
 Number     Number       Type             X           Y           Z
 ---------------------------------------------------------------------
      1          6           0       -0.100553    0.820979    0.163992
      2          6           0       -1.367413    1.294739    0.335422
      3          6           0       -1.523406   -0.799860   -0.350831
      4          7           0       -0.229788   -0.487663   -0.267675
      5          1           0        0.911574    1.246431    0.256579
      6          1           0       -1.718912    2.262408    0.648189
      7          1           0       -1.925308   -1.749815   -0.657920
      8          7           0       -2.245092    0.271294    0.009676
      9          6           0        0.899607   -1.407345   -0.544907
     10          6           0        1.438982   -2.022665    0.738190
     11          1           0        1.678586   -0.797225   -1.010235
     12          1           0        0.524110   -2.157733   -1.243752
     13          1           0        2.240647   -2.719320    0.484913
     14          1           0        1.871983   -1.239676    1.362252
     15          1           0        0.664477   -2.565393    1.288669
     16          6           0       -3.702576    0.352187    0.037892
     17          1           0       -4.037398    0.607906    1.043301
     18          1           0       -4.045010    1.109970   -0.667279
     19          1           0       -4.119286   -0.613372   -0.243043
     20         17           0        3.024168    1.100129   -0.102013
 ---------------------------------------------------------------------
 Rotational constants (GHZ):      2.3825454      0.6887681      0.5622663
 Standard basis: 6-311+G(d,p) (5D, 7F)
 AO basis set in the form of general basis input (Overlap normalization):
      1 0
 S   6 1.00       0.000000000000
      0.4563240000D+04  0.1966650249D-02
      0.6820240000D+03  0.1523060193D-01
      0.1549730000D+03  0.7612690966D-01
      0.4445530000D+02  0.2608010331D+00
      0.1302900000D+02  0.6164620782D+00
      0.1827730000D+01  0.2210060280D+00
 SP   3 1.00       0.000000000000
      0.2096420000D+02  0.1146600807D+00  0.4024869267D-01
      0.4803310000D+01  0.9199996477D+00  0.2375939567D+00
      0.1459330000D+01 -0.3030682134D-02  0.8158538515D+00
 SP   1 1.00       0.000000000000
      0.4834560000D+00  0.1000000000D+01  0.1000000000D+01
 SP   1 1.00       0.000000000000
      0.1455850000D+00  0.1000000000D+01  0.1000000000D+01
 SP   1 1.00       0.000000000000
      0.4380000000D-01  0.1000000000D+01  0.1000000000D+01
 D   1 1.00       0.000000000000
      0.6260000000D+00  0.1000000000D+01
 ****
      2 0
 S   6 1.00       0.000000000000
      0.4563240000D+04  0.1966650249D-02
      0.6820240000D+03  0.1523060193D-01
      0.1549730000D+03  0.7612690966D-01
      0.4445530000D+02  0.2608010331D+00
      0.1302900000D+02  0.6164620782D+00
      0.1827730000D+01  0.2210060280D+00
 SP   3 1.00       0.000000000000
      0.2096420000D+02  0.1146600807D+00  0.4024869267D-01
      0.4803310000D+01  0.9199996477D+00  0.2375939567D+00
      0.1459330000D+01 -0.3030682134D-02  0.8158538515D+00
 SP   1 1.00       0.000000000000
      0.4834560000D+00  0.1000000000D+01  0.1000000000D+01
 SP   1 1.00       0.000000000000
      0.1455850000D+00  0.1000000000D+01  0.1000000000D+01
 SP   1 1.00       0.000000000000
      0.4380000000D-01  0.1000000000D+01  0.1000000000D+01
 D   1 1.00       0.000000000000
      0.6260000000D+00  0.1000000000D+01
 ****
      3 0
 S   6 1.00       0.000000000000
      0.4563240000D+04  0.1966650249D-02
      0.6820240000D+03  0.1523060193D-01
      0.1549730000D+03  0.7612690966D-01
      0.4445530000D+02  0.2608010331D+00
      0.1302900000D+02  0.6164620782D+00
      0.1827730000D+01  0.2210060280D+00
 SP   3 1.00       0.000000000000
      0.2096420000D+02  0.1146600807D+00  0.4024869267D-01
      0.4803310000D+01  0.9199996477D+00  0.2375939567D+00
      0.1459330000D+01 -0.3030682134D-02  0.8158538515D+00
 SP   1 1.00       0.000000000000
      0.4834560000D+00  0.1000000000D+01  0.1000000000D+01
 SP   1 1.00       0.000000000000
      0.1455850000D+00  0.1000000000D+01  0.1000000000D+01
 SP   1 1.00       0.000000000000
      0.4380000000D-01  0.1000000000D+01  0.1000000000D+01
 D   1 1.00       0.000000000000
      0.6260000000D+00  0.1000000000D+01
 ****
      4 0
 S   6 1.00       0.000000000000
      0.6293480000D+04  0.1969788147D-02
      0.9490440000D+03  0.1496128592D-01
      0.2187760000D+03  0.7350053084D-01
      0.6369160000D+02  0.2489367658D+00
      0.1882820000D+02  0.6024594331D+00
      0.2720230000D+01  0.2562017589D+00
 SP   3 1.00       0.000000000000
      0.3063310000D+02  0.1119060795D+00  0.3831191864D-01
      0.7026140000D+01  0.9216666549D+00  0.2374031155D+00
      0.2112050000D+01 -0.2569191826D-02  0.8175923978D+00
 SP   1 1.00       0.000000000000
      0.6840090000D+00  0.1000000000D+01  0.1000000000D+01
 SP   1 1.00       0.000000000000
      0.2008780000D+00  0.1000000000D+01  0.1000000000D+01
 SP   1 1.00       0.000000000000
      0.6390000000D-01  0.1000000000D+01  0.1000000000D+01
 D   1 1.00       0.000000000000
      0.9130000000D+00  0.1000000000D+01
 ****
      5 0
 S   3 1.00       0.000000000000
      0.3386500000D+02  0.2549381454D-01
      0.5094790000D+01  0.1903731086D+00
      0.1158790000D+01  0.8521614860D+00
 S   1 1.00       0.000000000000
      0.3258400000D+00  0.1000000000D+01
 S   1 1.00       0.000000000000
      0.1027410000D+00  0.1000000000D+01
 P   1 1.00       0.000000000000
      0.7500000000D+00  0.1000000000D+01
 ****
      6 0
 S   3 1.00       0.000000000000
      0.3386500000D+02  0.2549381454D-01
      0.5094790000D+01  0.1903731086D+00
      0.1158790000D+01  0.8521614860D+00
 S   1 1.00       0.000000000000
      0.3258400000D+00  0.1000000000D+01
 S   1 1.00       0.000000000000
      0.1027410000D+00  0.1000000000D+01
 P   1 1.00       0.000000000000
      0.7500000000D+00  0.1000000000D+01
 ****
      7 0
 S   3 1.00       0.000000000000
      0.3386500000D+02  0.2549381454D-01
      0.5094790000D+01  0.1903731086D+00
      0.1158790000D+01  0.8521614860D+00
 S   1 1.00       0.000000000000
      0.3258400000D+00  0.1000000000D+01
 S   1 1.00       0.000000000000
      0.1027410000D+00  0.1000000000D+01
 P   1 1.00       0.000000000000
      0.7500000000D+00  0.1000000000D+01
 ****
      8 0
 S   6 1.00       0.000000000000
      0.6293480000D+04  0.1969788147D-02
      0.9490440000D+03  0.1496128592D-01
      0.2187760000D+03  0.7350053084D-01
      0.6369160000D+02  0.2489367658D+00
      0.1882820000D+02  0.6024594331D+00
      0.2720230000D+01  0.2562017589D+00
 SP   3 1.00       0.000000000000
      0.3063310000D+02  0.1119060795D+00  0.3831191864D-01
      0.7026140000D+01  0.9216666549D+00  0.2374031155D+00
      0.2112050000D+01 -0.2569191826D-02  0.8175923978D+00
 SP   1 1.00       0.000000000000
      0.6840090000D+00  0.1000000000D+01  0.1000000000D+01
 SP   1 1.00       0.000000000000
      0.2008780000D+00  0.1000000000D+01  0.1000000000D+01
 SP   1 1.00       0.000000000000
      0.6390000000D-01  0.1000000000D+01  0.1000000000D+01
 D   1 1.00       0.000000000000
      0.9130000000D+00  0.1000000000D+01
 ****
      9 0
 S   6 1.00       0.000000000000
      0.4563240000D+04  0.1966650249D-02
      0.6820240000D+03  0.1523060193D-01
      0.1549730000D+03  0.7612690966D-01
      0.4445530000D+02  0.2608010331D+00
      0.1302900000D+02  0.6164620782D+00
      0.1827730000D+01  0.2210060280D+00
 SP   3 1.00       0.000000000000
      0.2096420000D+02  0.1146600807D+00  0.4024869267D-01
      0.4803310000D+01  0.9199996477D+00  0.2375939567D+00
      0.1459330000D+01 -0.3030682134D-02  0.8158538515D+00
 SP   1 1.00       0.000000000000
      0.4834560000D+00  0.1000000000D+01  0.1000000000D+01
 SP   1 1.00       0.000000000000
      0.1455850000D+00  0.1000000000D+01  0.1000000000D+01
 SP   1 1.00       0.000000000000
      0.4380000000D-01  0.1000000000D+01  0.1000000000D+01
 D   1 1.00       0.000000000000
      0.6260000000D+00  0.1000000000D+01
 ****
     10 0
 S   6 1.00       0.000000000000
      0.4563240000D+04  0.1966650249D-02
      0.6820240000D+03  0.1523060193D-01
      0.1549730000D+03  0.7612690966D-01
      0.4445530000D+02  0.2608010331D+00
      0.1302900000D+02  0.6164620782D+00
      0.1827730000D+01  0.2210060280D+00
 SP   3 1.00       0.000000000000
      0.2096420000D+02  0.1146600807D+00  0.4024869267D-01
      0.4803310000D+01  0.9199996477D+00  0.2375939567D+00
      0.1459330000D+01 -0.3030682134D-02  0.8158538515D+00
 SP   1 1.00       0.000000000000
      0.4834560000D+00  0.1000000000D+01  0.1000000000D+01
 SP   1 1.00       0.000000000000
      0.1455850000D+00  0.1000000000D+01  0.1000000000D+01
 SP   1 1.00       0.000000000000
      0.4380000000D-01  0.1000000000D+01  0.1000000000D+01
 D   1 1.00       0.000000000000
      0.6260000000D+00  0.1000000000D+01
 ****
     11 0
 S   3 1.00       0.000000000000
      0.3386500000D+02  0.2549381454D-01
      0.5094790000D+01  0.1903731086D+00
      0.1158790000D+01  0.8521614860D+00
 S   1 1.00       0.000000000000
      0.3258400000D+00  0.1000000000D+01
 S   1 1.00       0.000000000000
      0.1027410000D+00  0.1000000000D+01
 P   1 1.00       0.000000000000
      0.7500000000D+00  0.1000000000D+01
 ****
     12 0
 S   3 1.00       0.000000000000
      0.3386500000D+02  0.2549381454D-01
      0.5094790000D+01  0.1903731086D+00
      0.1158790000D+01  0.8521614860D+00
 S   1 1.00       0.000000000000
      0.3258400000D+00  0.1000000000D+01
 S   1 1.00       0.000000000000
      0.1027410000D+00  0.1000000000D+01
 P   1 1.00       0.000000000000
      0.7500000000D+00  0.1000000000D+01
 ****
     13 0
 S   3 1.00       0.000000000000
      0.3386500000D+02  0.2549381454D-01
      0.5094790000D+01  0.1903731086D+00
      0.1158790000D+01  0.8521614860D+00
 S   1 1.00       0.000000000000
      0.3258400000D+00  0.1000000000D+01
 S   1 1.00       0.000000000000
      0.1027410000D+00  0.1000000000D+01
 P   1 1.00       0.000000000000
      0.7500000000D+00  0.1000000000D+01
 ****
     14 0
 S   3 1.00       0.000000000000
      0.3386500000D+02  0.2549381454D-01
      0.5094790000D+01  0.1903731086D+00
      0.1158790000D+01  0.8521614860D+00
 S   1 1.00       0.000000000000
      0.3258400000D+00  0.1000000000D+01
 S   1 1.00       0.000000000000
      0.1027410000D+00  0.1000000000D+01
 P   1 1.00       0.000000000000
      0.7500000000D+00  0.1000000000D+01
 ****
     15 0
 S   3 1.00       0.000000000000
      0.3386500000D+02  0.2549381454D-01
      0.5094790000D+01  0.1903731086D+00
      0.1158790000D+01  0.8521614860D+00
 S   1 1.00       0.000000000000
      0.3258400000D+00  0.1000000000D+01
 S   1 1.00       0.000000000000
      0.1027410000D+00  0.1000000000D+01
 P   1 1.00       0.000000000000
      0.7500000000D+00  0.1000000000D+01
 ****
     16 0
 S   6 1.00       0.000000000000
      0.4563240000D+04  0.1966650249D-02
      0.6820240000D+03  0.1523060193D-01
      0.1549730000D+03  0.7612690966D-01
      0.4445530000D+02  0.2608010331D+00
      0.1302900000D+02  0.6164620782D+00
      0.1827730000D+01  0.2210060280D+00
 SP   3 1.00       0.000000000000
      0.2096420000D+02  0.1146600807D+00  0.4024869267D-01
      0.4803310000D+01  0.9199996477D+00  0.2375939567D+00
      0.1459330000D+01 -0.3030682134D-02  0.8158538515D+00
 SP   1 1.00       0.000000000000
      0.4834560000D+00  0.1000000000D+01  0.1000000000D+01
 SP   1 1.00       0.000000000000
      0.1455850000D+00  0.1000000000D+01  0.1000000000D+01
 SP   1 1.00       0.000000000000
      0.4380000000D-01  0.1000000000D+01  0.1000000000D+01
 D   1 1.00       0.000000000000
      0.6260000000D+00  0.1000000000D+01
 ****
     17 0
 S   3 1.00       0.000000000000
      0.3386500000D+02  0.2549381454D-01
      0.5094790000D+01  0.1903731086D+00
      0.1158790000D+01  0.8521614860D+00
 S   1 1.00       0.000000000000
      0.3258400000D+00  0.1000000000D+01
 S   1 1.00       0.000000000000
      0.1027410000D+00  0.1000000000D+01
 P   1 1.00       0.000000000000
      0.7500000000D+00  0.1000000000D+01
 ****
     18 0
 S   3 1.00       0.000000000000
      0.3386500000D+02  0.2549381454D-01
      0.5094790000D+01  0.1903731086D+00
      0.1158790000D+01  0.8521614860D+00
 S   1 1.00       0.000000000000
      0.3258400000D+00  0.1000000000D+01
 S   1 1.00       0.000000000000
      0.1027410000D+00  0.1000000000D+01
 P   1 1.00       0.000000000000
      0.7500000000D+00  0.1000000000D+01
 ****
     19 0
 S   3 1.00       0.000000000000
      0.3386500000D+02  0.2549381454D-01
      0.5094790000D+01  0.1903731086D+00
      0.1158790000D+01  0.8521614860D+00
 S   1 1.00       0.000000000000
      0.3258400000D+00  0.1000000000D+01
 S   1 1.00       0.000000000000
      0.1027410000D+00  0.1000000000D+01
 P   1 1.00       0.000000000000
      0.7500000000D+00  0.1000000000D+01
 ****
     20 0
 S   6 1.00       0.000000000000
      0.1058190000D+06  0.7380002465D-03
      0.1587200000D+05  0.5718001910D-02
      0.3619650000D+04  0.2949500985D-01
      0.1030800000D+04  0.1172860392D+00
      0.3399080000D+03  0.3629491212D+00
      0.1245380000D+03  0.5841491951D+00
 S   3 1.00       0.000000000000
      0.1245380000D+03  0.1341769734D+00
      0.4951350000D+02  0.6242498762D+00
      0.2080560000D+02  0.2917559421D+00
 S   1 1.00       0.000000000000
      0.6583460000D+01  0.1000000000D+01
 S   1 1.00       0.000000000000
      0.2564680000D+01  0.1000000000D+01
 S   1 1.00       0.000000000000
      0.5597630000D+00  0.1000000000D+01
 S   1 1.00       0.000000000000
      0.1832730000D+00  0.1000000000D+01
 SP   1 1.00       0.000000000000
      0.4830000000D-01  0.1000000000D+01  0.1000000000D+01
 P   5 1.00       0.000000000000
      0.5897760000D+03  0.3665569355D-02
      0.1398490000D+03  0.2836791942D-01
      0.4514130000D+02  0.1247566028D+00
      0.1687330000D+02  0.3396546305D+00
      0.2771520000D+01  0.7475859630D+00
 P   2 1.00       0.000000000000
      0.6741100000D+01 -0.1572243813D+01
      0.2771520000D+01  0.9923888817D+00
 P   1 1.00       0.000000000000
      0.1023870000D+01  0.1000000000D+01
 P   1 1.00       0.000000000000
      0.3813680000D+00  0.1000000000D+01
 P   1 1.00       0.000000000000
      0.1094370000D+00  0.1000000000D+01
 D   1 1.00       0.000000000000
      0.7500000000D+00  0.1000000000D+01
 ****

 There are   281 symmetry adapted cartesian basis functions of A   symmetry.
 There are   272 symmetry adapted basis functions of A   symmetry.
   272 basis functions,   429 primitive gaussians,   281 cartesian basis functions
    39 alpha electrons       39 beta electrons
       nuclear repulsion energy       513.7892908839 Hartrees.
 NAtoms=   20 NActive=   20 NUniq=   20 SFac= 1.00D+00 NAtFMM=   60 NAOKFM=F Big=F
 Integral buffers will be    131072 words long.
 Raffenetti 2 integral format.
 Two-electron integral symmetry is turned on.
 Nuclear repulsion after empirical dispersion term =      513.7568593979 Hartrees.
 One-electron integrals computed using PRISM.
 NBasis=   272 RedAO= T EigKep=  7.82D-06  NBF=   272
 NBsUse=   272 1.00D-06 EigRej= -1.00D+00 NBFU=   272
 ExpMin= 4.38D-02 ExpMax= 1.06D+05 ExpMxC= 3.62D+03 IAcc=3 IRadAn=         5 AccDes= 0.00D+00
 Harris functional with IExCor=  402 and IRadAn=       5 diagonalized for initial guess.
 HarFok:  IExCor=  402 AccDes= 0.00D+00 IRadAn=         5 IDoV= 1 UseB2=F ITyADJ=14
 ICtDFT=  3500011 ScaDFX=  1.000000  1.000000  1.000000  1.000000
 FoFCou: FMM=F IPFlag=           0 FMFlag=      100000 FMFlg1=           0
         NFxFlg=           0 DoJE=T BraDBF=F KetDBF=T FulRan=T
         wScrn=  0.000000 ICntrl=     500 IOpCl=  0 I1Cent=   200000004 NGrid=           0
         NMat0=    1 NMatS0=      1 NMatT0=    0 NMatD0=    1 NMtDS0=    0 NMtDT0=    0
 Petite list used in FoFCou.
 Keep R1 ints in memory in canonical form, NReq=700735283.
 Requested convergence on RMS density matrix=1.00D-09 within 128 cycles.
 Requested convergence on MAX density matrix=1.00D-07.
 Requested convergence on             energy=1.00D-07.
 No special actions if energy rises.
 SCF Done:  E(RB3LYP) =  -805.105260336     A.U. after   16 cycles
            NFock= 16  Conv=0.44D-09     -V/T= 2.0033

 **********************************************************************

            Population analysis using the SCF density.

 **********************************************************************

 Orbital symmetries:
       Occupied  (A) (A) (A) (A) (A) (A) (A) (A) (A) (A) (A) (A)
                 (A) (A) (A) (A) (A) (A) (A) (A) (A) (A) (A) (A)
                 (A) (A) (A) (A) (A) (A) (A) (A) (A) (A) (A) (A)
                 (A) (A) (A)
       Virtual   (A) (A) (A) (A) (A) (A) (A) (A) (A) (A) (A) (A)
                 (A) (A) (A) (A) (A) (A) (A) (A) (A) (A) (A) (A)
                 (A) (A) (A) (A) (A) (A) (A) (A) (A) (A) (A) (A)
                 (A) (A) (A) (A) (A) (A) (A) (A) (A) (A) (A) (A)
                 (A) (A) (A) (A) (A) (A) (A) (A) (A) (A) (A) (A)
                 (A) (A) (A) (A) (A) (A) (A) (A) (A) (A) (A) (A)
                 (A) (A) (A) (A) (A) (A) (A) (A) (A) (A) (A) (A)
                 (A) (A) (A) (A) (A) (A) (A) (A) (A) (A) (A) (A)
                 (A) (A) (A) (A) (A) (A) (A) (A) (A) (A) (A) (A)
                 (A) (A) (A) (A) (A) (A) (A) (A) (A) (A) (A) (A)
                 (A) (A) (A) (A) (A) (A) (A) (A) (A) (A) (A) (A)
                 (A) (A) (A) (A) (A) (A) (A) (A) (A) (A) (A) (A)
                 (A) (A) (A) (A) (A) (A) (A) (A) (A) (A) (A) (A)
                 (A) (A) (A) (A) (A) (A) (A) (A) (A) (A) (A) (A)
                 (A) (A) (A) (A) (A) (A) (A) (A) (A) (A) (A) (A)
                 (A) (A) (A) (A) (A) (A) (A) (A) (A) (A) (A) (A)
                 (A) (A) (A) (A) (A) (A) (A) (A) (A) (A) (A) (A)
                 (A) (A) (A) (A) (A) (A) (A) (A) (A) (A) (A) (A)
                 (A) (A) (A) (A) (A) (A) (A) (A) (A) (A) (A) (A)
                 (A) (A) (A) (A) (A)
 The electronic state is 1-A.
 Alpha  occ. eigenvalues -- -101.37876 -14.45193 -14.43458 -10.31073 -10.27904
 Alpha  occ. eigenvalues --  -10.25628 -10.23906 -10.23154 -10.17231  -9.29262
 Alpha  occ. eigenvalues --   -7.05104  -7.05083  -7.05058  -1.11192  -0.99511
 Alpha  occ. eigenvalues --   -0.84167  -0.81144  -0.77023  -0.68965  -0.67065
 Alpha  occ. eigenvalues --   -0.64668  -0.63546  -0.59169  -0.54794  -0.52321
 Alpha  occ. eigenvalues --   -0.52107  -0.49725  -0.48499  -0.47940  -0.45789
 Alpha  occ. eigenvalues --   -0.45471  -0.41840  -0.39120  -0.37207  -0.34074
 Alpha  occ. eigenvalues --   -0.30160  -0.18443  -0.18232  -0.18062
 Alpha virt. eigenvalues --   -0.06835  -0.03917  -0.02037  -0.01598  -0.00210
 Alpha virt. eigenvalues --    0.00723   0.01166   0.01352   0.02801   0.03706
 Alpha virt. eigenvalues --    0.04479   0.05789   0.06318   0.06621   0.07262
 Alpha virt. eigenvalues --    0.08409   0.09099   0.09417   0.09960   0.10400
 Alpha virt. eigenvalues --    0.11390   0.12047   0.12592   0.13370   0.13944
 Alpha virt. eigenvalues --    0.14295   0.14849   0.15277   0.15646   0.16331
 Alpha virt. eigenvalues --    0.16703   0.17035   0.17706   0.17944   0.18665
 Alpha virt. eigenvalues --    0.19031   0.19464   0.20055   0.20808   0.21969
 Alpha virt. eigenvalues --    0.22768   0.23480   0.23930   0.24120   0.24338
 Alpha virt. eigenvalues --    0.25678   0.25887   0.27666   0.28119   0.28876
 Alpha virt. eigenvalues --    0.29503   0.30795   0.35803   0.36511   0.37079
 Alpha virt. eigenvalues --    0.38218   0.38928   0.39753   0.42082   0.42803
 Alpha virt. eigenvalues --    0.44776   0.47268   0.48144   0.49256   0.51972
 Alpha virt. eigenvalues --    0.52901   0.53937   0.54601   0.55242   0.55660
 Alpha virt. eigenvalues --    0.57681   0.57787   0.58254   0.59279   0.61688
 Alpha virt. eigenvalues --    0.62420   0.63130   0.63280   0.65529   0.65888
 Alpha virt. eigenvalues --    0.67022   0.67482   0.68004   0.70136   0.71324
 Alpha virt. eigenvalues --    0.72507   0.74472   0.76292   0.77614   0.78998
 Alpha virt. eigenvalues --    0.81725   0.84338   0.86253   0.89715   0.90274
 Alpha virt. eigenvalues --    0.93126   0.93973   0.94689   0.98873   0.99818
 Alpha virt. eigenvalues --    1.01559   1.02640   1.03344   1.04296   1.05284
 Alpha virt. eigenvalues --    1.06554   1.08606   1.09760   1.11532   1.13469
 Alpha virt. eigenvalues --    1.17688   1.22893   1.26345   1.26859   1.29187
 Alpha virt. eigenvalues --    1.32176   1.35453   1.36274   1.38375   1.41254
 Alpha virt. eigenvalues --    1.44617   1.46876   1.47820   1.48683   1.51047
 Alpha virt. eigenvalues --    1.53912   1.54935   1.55882   1.57251   1.57391
 Alpha virt. eigenvalues --    1.58715   1.59382   1.59975   1.61955   1.63757
 Alpha virt. eigenvalues --    1.66951   1.69099   1.69784   1.73698   1.74720
 Alpha virt. eigenvalues --    1.76065   1.76905   1.77844   1.78431   1.82518
 Alpha virt. eigenvalues --    1.84181   1.90097   1.93207   1.96789   1.99812
 Alpha virt. eigenvalues --    2.01032   2.05190   2.06685   2.08773   2.10525
 Alpha virt. eigenvalues --    2.13696   2.16107   2.18996   2.23424   2.25354
 Alpha virt. eigenvalues --    2.29096   2.30478   2.34244   2.36666   2.40150
 Alpha virt. eigenvalues --    2.40530   2.40888   2.43926   2.44813   2.45707
 Alpha virt. eigenvalues --    2.46771   2.48079   2.48691   2.50382   2.51747
 Alpha virt. eigenvalues --    2.54151   2.56426   2.57470   2.58778   2.58963
 Alpha virt. eigenvalues --    2.60035   2.62813   2.65233   2.65352   2.69310
 Alpha virt. eigenvalues --    2.71983   2.73454   2.76038   2.77105   2.81454
 Alpha virt. eigenvalues --    2.83608   2.85690   2.88099   2.91821   2.92663
 Alpha virt. eigenvalues --    2.95141   2.96096   3.07926   3.18808   3.26455
 Alpha virt. eigenvalues --    3.36516   3.52796   3.55220   3.60347   3.64325
 Alpha virt. eigenvalues --    3.67727   3.70048   3.77535   3.78296   3.82633
 Alpha virt. eigenvalues --    3.84647   3.86171   3.87121   3.87958   4.07042
 Alpha virt. eigenvalues --    4.21219   4.68292   4.88698   4.92139   5.21964
 Alpha virt. eigenvalues --    9.84885  23.70644  23.83999  23.85171  23.86860
 Alpha virt. eigenvalues --   23.96904  24.14722  25.98242  26.04346  26.16759
 Alpha virt. eigenvalues --   35.41169  35.56589 215.83023
     Molecular Orbital Coefficients:
                           1         2         3         4         5
                           O         O         O         O         O
     Eigenvalues --  -101.37876 -14.45193 -14.43458 -10.31073 -10.27904
   1 1   C  1S          0.00000  -0.00001   0.00001  -0.00002  -0.00002
   2        2S          0.00000   0.00005   0.00002  -0.00002   0.00001
   3        2PX         0.00000  -0.00004  -0.00005   0.00008  -0.00001
   4        2PY         0.00000   0.00007  -0.00043   0.00003   0.00000
   5        2PZ         0.00000   0.00002  -0.00014   0.00002   0.00000
   6        3S          0.00002  -0.00040   0.00039  -0.00002  -0.00015
   7        3PX         0.00003   0.00079   0.00009  -0.00030   0.00009
   8        3PY         0.00000  -0.00030   0.00114  -0.00019  -0.00001
   9        3PZ         0.00001  -0.00010   0.00036  -0.00009   0.00000
  10        4S          0.00020   0.00013   0.00321  -0.00141   0.00279
  11        4PX        -0.00050   0.00187  -0.00196  -0.00094  -0.00201
  12        4PY        -0.00023   0.00117  -0.00281  -0.00017  -0.00061
  13        4PZ        -0.00008   0.00030  -0.00079   0.00004  -0.00021
  14        5S          0.00382   0.03485  -0.02309  -0.03515   0.02460
  15        5PX        -0.00208  -0.00940   0.00436   0.01566  -0.01048
  16        5PY        -0.00041  -0.00111   0.00247  -0.00379  -0.00101
  17        5PZ         0.00000  -0.00024   0.00042  -0.00231   0.00003
  18        6D 0        0.00000  -0.00006  -0.00001  -0.00009   0.00002
  19        6D+1        0.00000   0.00013  -0.00013   0.00009  -0.00001
  20        6D-1        0.00001   0.00005  -0.00035   0.00005   0.00000
  21        6D+2       -0.00001  -0.00006   0.00092   0.00003  -0.00003
  22        6D-2        0.00000   0.00044  -0.00030   0.00025  -0.00003
  23 2   C  1S          0.00000   0.00001  -0.00001  -0.00004  -0.00008
  24        2S          0.00000   0.00002   0.00005  -0.00003  -0.00006
  25        2PX         0.00000  -0.00029   0.00008  -0.00003  -0.00003
  26        2PY         0.00000  -0.00032   0.00003   0.00009  -0.00006
  27        2PZ         0.00000  -0.00010   0.00001   0.00003  -0.00002
  28        3S          0.00001   0.00039  -0.00036  -0.00015  -0.00008
  29        3PX        -0.00001   0.00081  -0.00081   0.00004   0.00022
  30        3PY         0.00000   0.00080   0.00031  -0.00037   0.00044
  31        3PZ         0.00000   0.00025   0.00009  -0.00012   0.00015
  32        4S         -0.00040   0.00307   0.00026  -0.00006  -0.00281
  33        4PX         0.00000  -0.00036  -0.00042   0.00083  -0.00080
  34        4PY         0.00019  -0.00379   0.00179  -0.00127   0.00201
  35        4PZ         0.00006  -0.00123   0.00061  -0.00044   0.00066
  36        5S         -0.00439  -0.03420   0.02409   0.04615  -0.02161
  37        5PX        -0.00019  -0.00328   0.00173   0.00691  -0.00277
  38        5PY         0.00082   0.00502  -0.00478  -0.00586   0.00390
  39        5PZ         0.00022   0.00165  -0.00144  -0.00157   0.00121
  40        6D 0        0.00000   0.00007  -0.00003  -0.00008  -0.00003
  41        6D+1        0.00000  -0.00029   0.00002   0.00000  -0.00006
  42        6D-1        0.00000  -0.00016   0.00019   0.00014   0.00002
  43        6D+2        0.00000   0.00034  -0.00048  -0.00023   0.00000
  44        6D-2        0.00000  -0.00088   0.00005  -0.00001  -0.00019
  45 3   C  1S          0.00000   0.00000   0.00000   0.56291   0.00006
  46        2S          0.00000   0.00009   0.00010   0.46318   0.00007
  47        2PX         0.00000  -0.00030   0.00052   0.00004  -0.00001
  48        2PY         0.00000   0.00040   0.00010   0.00046   0.00004
  49        2PZ         0.00000   0.00013   0.00003   0.00015   0.00001
  50        3S         -0.00002   0.00008   0.00008   0.01969  -0.00012
  51        3PX         0.00000   0.00089  -0.00170   0.00028   0.00014
  52        3PY         0.00001  -0.00130  -0.00042  -0.00017  -0.00036
  53        3PZ         0.00000  -0.00042  -0.00012  -0.00005  -0.00011
  54        4S          0.00030   0.00640   0.00504  -0.00949  -0.00124
  55        4PX        -0.00003  -0.00076   0.00344  -0.00146  -0.00194
  56        4PY         0.00010   0.00490   0.00279  -0.00037  -0.00114
  57        4PZ         0.00003   0.00158   0.00097  -0.00015  -0.00039
  58        5S          0.00045  -0.00089  -0.00204  -0.02276   0.00198
  59        5PX         0.00000   0.00341  -0.00315  -0.00167  -0.00023
  60        5PY         0.00014  -0.00147   0.00081  -0.00429  -0.00072
  61        5PZ         0.00002  -0.00071   0.00015  -0.00159  -0.00022
  62        6D 0        0.00000   0.00009   0.00028  -0.00156  -0.00004
  63        6D+1        0.00000   0.00034  -0.00018   0.00019   0.00004
  64        6D-1        0.00000  -0.00027   0.00025   0.00115   0.00000
  65        6D+2        0.00000   0.00056  -0.00109  -0.00045   0.00007
  66        6D-2        0.00000   0.00106  -0.00066   0.00070   0.00014
  67 4   N  1S          0.00000  -0.00037   0.55737  -0.00007   0.00000
  68        2S          0.00000  -0.00024   0.46568  -0.00002   0.00001
  69        2PX         0.00000  -0.00007  -0.00015  -0.00048  -0.00002
  70        2PY         0.00000  -0.00002  -0.00004  -0.00007  -0.00001
  71        2PZ         0.00000  -0.00001   0.00000  -0.00002   0.00000
  72        3S          0.00002  -0.00039   0.01643   0.00063  -0.00013
  73        3PX         0.00001   0.00050  -0.00089   0.00127   0.00010
  74        3PY         0.00001   0.00005   0.00034   0.00018   0.00007
  75        3PZ         0.00001   0.00003   0.00018   0.00004   0.00002
  76        4S         -0.00019  -0.00051  -0.01682  -0.00337   0.00083
  77        4PX         0.00004   0.00127   0.00094   0.00265  -0.00072
  78        4PY        -0.00017  -0.00026  -0.00040   0.00005  -0.00067
  79        4PZ        -0.00007  -0.00022  -0.00031  -0.00013  -0.00024
  80        5S         -0.00077  -0.01223   0.01379   0.02033   0.00460
  81        5PX         0.00123   0.01262  -0.00520  -0.00791  -0.00124
  82        5PY        -0.00076  -0.00983   0.00413  -0.00227  -0.00079
  83        5PZ        -0.00026  -0.00317   0.00136   0.00013   0.00003
  84        6D 0        0.00000   0.00006  -0.00045   0.00070   0.00002
  85        6D+1        0.00000  -0.00005   0.00005  -0.00007   0.00000
  86        6D-1        0.00000   0.00003   0.00021  -0.00011   0.00000
  87        6D+2        0.00000  -0.00017   0.00017  -0.00089  -0.00001
  88        6D-2        0.00000  -0.00017   0.00015  -0.00032  -0.00001
  89 5   H  1S         -0.00002   0.00003  -0.00013  -0.00007  -0.00002
  90        2S          0.00009  -0.00112  -0.00026   0.00043   0.00025
  91        3S          0.00061  -0.00047   0.00193   0.00144   0.00086
  92        4PX         0.00002   0.00031   0.00018  -0.00004  -0.00002
  93        4PY        -0.00001   0.00008   0.00034  -0.00008  -0.00002
  94        4PZ        -0.00001   0.00000   0.00011  -0.00003   0.00001
  95 6   H  1S          0.00000  -0.00016  -0.00001  -0.00010   0.00002
  96        2S         -0.00002   0.00019  -0.00106   0.00062  -0.00065
  97        3S         -0.00009   0.00156  -0.00049   0.00094  -0.00141
  98        4PX        -0.00001   0.00019  -0.00014  -0.00004   0.00004
  99        4PY         0.00000   0.00029   0.00028  -0.00009   0.00022
 100        4PZ         0.00000   0.00009   0.00008  -0.00003   0.00007
 101 7   H  1S          0.00000  -0.00018  -0.00018  -0.00002   0.00002
 102        2S         -0.00001  -0.00004  -0.00008  -0.00396  -0.00056
 103        3S          0.00005   0.00161   0.00150   0.00163  -0.00159
 104        4PX         0.00000   0.00023  -0.00048  -0.00089   0.00010
 105        4PY        -0.00001  -0.00046  -0.00019  -0.00222  -0.00021
 106        4PZ         0.00000  -0.00015  -0.00006  -0.00071  -0.00007
 107 8   N  1S          0.00000   0.55737   0.00036  -0.00006  -0.00003
 108        2S          0.00000   0.46566   0.00038  -0.00003  -0.00007
 109        2PX         0.00000  -0.00014   0.00004   0.00029  -0.00021
 110        2PY         0.00000  -0.00003  -0.00006  -0.00034   0.00002
 111        2PZ         0.00000  -0.00002  -0.00002  -0.00012   0.00001
 112        3S          0.00001   0.01650  -0.00034   0.00067   0.00034
 113        3PX         0.00000   0.00094  -0.00033  -0.00077  -0.00002
 114        3PY         0.00000  -0.00038   0.00037   0.00080  -0.00006
 115        3PZ         0.00000  -0.00014   0.00013   0.00028  -0.00003
 116        4S         -0.00002  -0.01776  -0.00071  -0.00357   0.00216
 117        4PX        -0.00002  -0.00152  -0.00109  -0.00173   0.00217
 118        4PY         0.00009   0.00086   0.00047   0.00180   0.00055
 119        4PZ         0.00003   0.00030   0.00014   0.00058   0.00018
 120        5S          0.00098   0.01549  -0.01006   0.00313   0.00852
 121        5PX         0.00039   0.01217  -0.00865   0.00132  -0.01059
 122        5PY         0.00013  -0.00100  -0.00055  -0.00430   0.00223
 123        5PZ         0.00004  -0.00035  -0.00002  -0.00146   0.00065
 124        6D 0        0.00000  -0.00042   0.00004   0.00057   0.00011
 125        6D+1        0.00000  -0.00004   0.00006   0.00027   0.00002
 126        6D-1        0.00000   0.00028  -0.00008  -0.00044   0.00006
 127        6D+2        0.00000  -0.00002   0.00015   0.00017  -0.00036
 128        6D-2        0.00000  -0.00012   0.00018   0.00077   0.00005
 129 9   C  1S          0.00000   0.00000   0.00001  -0.00003  -0.00001
 130        2S          0.00000   0.00001  -0.00002  -0.00001   0.00000
 131        2PX         0.00000  -0.00004  -0.00022   0.00001  -0.00001
 132        2PY         0.00000   0.00002   0.00018   0.00004   0.00000
 133        2PZ         0.00000   0.00002   0.00008   0.00003   0.00000
 134        3S          0.00001   0.00002  -0.00004  -0.00020  -0.00005
 135        3PX        -0.00001   0.00020   0.00036   0.00002   0.00007
 136        3PY        -0.00001  -0.00011  -0.00024  -0.00021   0.00001
 137        3PZ        -0.00001  -0.00008  -0.00035  -0.00019  -0.00002
 138        4S         -0.00022  -0.00179   0.00428  -0.00018   0.00017
 139        4PX         0.00016  -0.00043  -0.00132   0.00004   0.00052
 140        4PY        -0.00002  -0.00131   0.00107  -0.00099   0.00012
 141        4PZ         0.00011   0.00009   0.00035   0.00059   0.00047
 142        5S         -0.00058  -0.01745  -0.00466  -0.02320  -0.00220
 143        5PX         0.00020   0.00306  -0.00162  -0.00040   0.00137
 144        5PY        -0.00039  -0.00209   0.00092   0.00083  -0.00076
 145        5PZ         0.00003  -0.00237  -0.00229  -0.00615  -0.00001
 146        6D 0        0.00001   0.00004   0.00022   0.00001   0.00002
 147        6D+1        0.00000   0.00006   0.00011   0.00008   0.00000
 148        6D-1       -0.00001   0.00002  -0.00011   0.00005  -0.00001
 149        6D+2        0.00000   0.00000  -0.00006   0.00010  -0.00003
 150        6D-2       -0.00001   0.00006   0.00042   0.00013   0.00003
 151 10  C  1S          0.00000   0.00000   0.00000   0.00000   0.00000
 152        2S          0.00000  -0.00001   0.00002   0.00000   0.00000
 153        2PX         0.00000  -0.00001  -0.00003   0.00001   0.00000
 154        2PY         0.00000  -0.00001   0.00004   0.00002   0.00000
 155        2PZ         0.00000   0.00000  -0.00007   0.00000   0.00000
 156        3S          0.00003   0.00010  -0.00012   0.00009   0.00008
 157        3PX         0.00000   0.00003   0.00022  -0.00005  -0.00001
 158        3PY         0.00000   0.00006  -0.00021  -0.00008   0.00001
 159        3PZ         0.00000   0.00000   0.00042  -0.00003   0.00000
 160        4S         -0.00023  -0.00095   0.00017  -0.00081  -0.00073
 161        4PX         0.00001   0.00055  -0.00020   0.00084   0.00015
 162        4PY        -0.00006   0.00036   0.00021  -0.00002  -0.00049
 163        4PZ         0.00008   0.00049   0.00006   0.00018   0.00012
 164        5S         -0.00066   0.00466   0.00908   0.01987  -0.00157
 165        5PX         0.00002  -0.00095  -0.00130  -0.00285  -0.00004
 166        5PY        -0.00009   0.00057   0.00144   0.00235  -0.00030
 167        5PZ         0.00016  -0.00058  -0.00165  -0.00363   0.00044
 168        6D 0        0.00000  -0.00002  -0.00008   0.00001  -0.00001
 169        6D+1        0.00000  -0.00001  -0.00011  -0.00002  -0.00001
 170        6D-1        0.00001   0.00002   0.00012  -0.00001   0.00001
 171        6D+2        0.00000  -0.00004   0.00002  -0.00001   0.00001
 172        6D-2        0.00000   0.00001   0.00000  -0.00003  -0.00002
 173 11  H  1S          0.00000  -0.00001   0.00002   0.00001   0.00001
 174        2S         -0.00003   0.00030  -0.00112   0.00005  -0.00018
 175        3S         -0.00008  -0.00054   0.00121   0.00190   0.00028
 176        4PX         0.00000   0.00001   0.00022   0.00001   0.00000
 177        4PY         0.00000  -0.00002   0.00015   0.00002   0.00001
 178        4PZ         0.00000   0.00002  -0.00011  -0.00001  -0.00004
 179 12  H  1S         -0.00001   0.00003   0.00000  -0.00001   0.00000
 180        2S          0.00006  -0.00048  -0.00099  -0.00051   0.00006
 181        3S         -0.00008  -0.00106   0.00073   0.00036   0.00016
 182        4PX         0.00000  -0.00002  -0.00006   0.00005   0.00001
 183        4PY         0.00001   0.00000  -0.00022  -0.00003   0.00001
 184        4PZ         0.00000  -0.00007  -0.00016  -0.00011   0.00000
 185 13  H  1S          0.00000  -0.00001  -0.00004   0.00000   0.00001
 186        2S          0.00001   0.00010  -0.00001  -0.00003  -0.00005
 187        3S          0.00007   0.00010   0.00014  -0.00041   0.00012
 188        4PX         0.00000  -0.00006   0.00003  -0.00003   0.00001
 189        4PY         0.00000  -0.00002  -0.00003  -0.00004   0.00001
 190        4PZ         0.00000  -0.00001  -0.00005  -0.00001  -0.00001
 191 14  H  1S          0.00001   0.00004   0.00006  -0.00005  -0.00001
 192        2S         -0.00003  -0.00033  -0.00036   0.00038   0.00017
 193        3S          0.00008  -0.00032  -0.00023  -0.00072   0.00050
 194        4PX         0.00000   0.00001   0.00013  -0.00008  -0.00002
 195        4PY        -0.00001   0.00003   0.00004   0.00001  -0.00001
 196        4PZ         0.00000   0.00003   0.00010  -0.00005  -0.00002
 197 15  H  1S          0.00000  -0.00001   0.00004  -0.00004  -0.00001
 198        2S          0.00000   0.00016  -0.00026   0.00047   0.00009
 199        3S         -0.00001  -0.00024  -0.00032  -0.00087  -0.00028
 200        4PX         0.00000   0.00004  -0.00003   0.00006   0.00001
 201        4PY         0.00000  -0.00002  -0.00013  -0.00002   0.00001
 202        4PZ         0.00000  -0.00002   0.00007   0.00002   0.00000
 203 16  C  1S          0.00000   0.00002   0.00000  -0.00006   0.56300
 204        2S          0.00000  -0.00003   0.00002  -0.00004   0.46316
 205        2PX         0.00000   0.00035   0.00005   0.00002   0.00100
 206        2PY         0.00000  -0.00001  -0.00001   0.00006  -0.00009
 207        2PZ         0.00000   0.00000   0.00000   0.00002  -0.00003
 208        3S          0.00001   0.00006  -0.00010  -0.00016   0.01963
 209        3PX         0.00000  -0.00078  -0.00026  -0.00017  -0.00194
 210        3PY         0.00000   0.00002   0.00005  -0.00020   0.00006
 211        3PZ         0.00000  -0.00001   0.00001  -0.00008   0.00003
 212        4S         -0.00005   0.00527  -0.00071   0.00009  -0.01074
 213        4PX        -0.00001   0.00193  -0.00003  -0.00025  -0.00163
 214        4PY         0.00000  -0.00024  -0.00043   0.00009  -0.00044
 215        4PZ         0.00000  -0.00003  -0.00013   0.00015  -0.00008
 216        5S          0.00027   0.00798  -0.00747   0.00334  -0.01194
 217        5PX         0.00008   0.00229  -0.00235   0.00092  -0.00303
 218        5PY         0.00004  -0.00042   0.00048  -0.00003  -0.00007
 219        5PZ         0.00003  -0.00004   0.00019   0.00005   0.00001
 220        6D 0        0.00000   0.00036   0.00002  -0.00001   0.00054
 221        6D+1        0.00000   0.00001  -0.00001  -0.00003   0.00003
 222        6D-1        0.00000  -0.00004   0.00001   0.00005   0.00000
 223        6D+2        0.00000  -0.00051  -0.00008  -0.00010  -0.00094
 224        6D-2        0.00000   0.00001  -0.00002  -0.00010   0.00008
 225 17  H  1S          0.00000  -0.00001   0.00000   0.00003   0.00015
 226        2S         -0.00001  -0.00111   0.00000  -0.00014  -0.00312
 227        3S          0.00003   0.00112  -0.00048  -0.00022   0.00228
 228        4PX         0.00000  -0.00014  -0.00002  -0.00003  -0.00049
 229        4PY         0.00000   0.00010   0.00004   0.00003   0.00052
 230        4PZ         0.00000   0.00030   0.00002   0.00004   0.00199
 231 18  H  1S          0.00000  -0.00001   0.00001   0.00003   0.00015
 232        2S          0.00000  -0.00112  -0.00005  -0.00012  -0.00307
 233        3S          0.00003   0.00128  -0.00032   0.00000   0.00226
 234        4PX         0.00000  -0.00014  -0.00002  -0.00002  -0.00050
 235        4PY         0.00000   0.00024   0.00005   0.00003   0.00150
 236        4PZ         0.00000  -0.00020   0.00001  -0.00001  -0.00138
 237 19  H  1S          0.00000   0.00002   0.00000  -0.00006   0.00017
 238        2S          0.00001  -0.00111  -0.00021  -0.00006  -0.00332
 239        3S          0.00003   0.00076  -0.00059  -0.00081   0.00178
 240        4PX         0.00000  -0.00018   0.00002  -0.00007  -0.00069
 241        4PY         0.00000  -0.00026  -0.00003  -0.00003  -0.00197
 242        4PZ         0.00000  -0.00008  -0.00001  -0.00001  -0.00058
 243 20  Cl 1S          0.41161   0.00000   0.00000   0.00000   0.00000
 244        2S          0.65408   0.00000   0.00000   0.00000   0.00000
 245        3S          0.01499   0.00001   0.00002  -0.00002   0.00001
 246        4S         -0.00395  -0.00002  -0.00005   0.00005  -0.00002
 247        5S          0.00147   0.00004   0.00015  -0.00016   0.00007
 248        6S         -0.00103  -0.00010  -0.00023   0.00035  -0.00021
 249        7S          0.00105   0.00136   0.00001  -0.00260   0.00244
 250        7PX        -0.00045  -0.00041  -0.00017   0.00092  -0.00082
 251        7PY        -0.00012  -0.00020  -0.00012   0.00023  -0.00006
 252        7PZ         0.00005   0.00009  -0.00008  -0.00009   0.00019
 253        8PX        -0.00001   0.00000   0.00000   0.00000   0.00001
 254        8PY         0.00000   0.00001   0.00000   0.00000   0.00000
 255        8PZ         0.00000   0.00000   0.00000   0.00000   0.00000
 256        9PX         0.00000   0.00000   0.00000   0.00000   0.00000
 257        9PY         0.00000   0.00000   0.00000   0.00000   0.00000
 258        9PZ         0.00000   0.00000   0.00000   0.00000   0.00000
 259       10PX         0.00002   0.00001   0.00000   0.00002  -0.00003
 260       10PY         0.00000  -0.00002   0.00000  -0.00001  -0.00001
 261       10PZ         0.00000  -0.00001   0.00000  -0.00001   0.00000
 262       11PX        -0.00003  -0.00001  -0.00002  -0.00003   0.00007
 263       11PY         0.00000   0.00003  -0.00001   0.00004   0.00002
 264       11PZ         0.00000   0.00001   0.00001   0.00002  -0.00001
 265       12PX         0.00018   0.00001   0.00028   0.00012  -0.00020
 266       12PY         0.00002   0.00002   0.00003  -0.00029  -0.00010
 267       12PZ        -0.00003  -0.00001  -0.00004  -0.00007   0.00000
 268       13D 0        0.00000   0.00000   0.00002  -0.00001   0.00000
 269       13D+1        0.00000  -0.00001   0.00000   0.00001   0.00000
 270       13D-1        0.00000   0.00001  -0.00001  -0.00001   0.00000
 271       13D+2       -0.00001   0.00000  -0.00002  -0.00001   0.00000
 272       13D-2        0.00000  -0.00002  -0.00001   0.00003   0.00000
                           6         7         8         9        10
                           O         O         O         O         O
     Eigenvalues --   -10.25628 -10.23906 -10.23154 -10.17231  -9.29262
   1 1   C  1S          0.01103   0.56278   0.00025   0.00000   0.00000
   2        2S          0.00939   0.46307   0.00022  -0.00001  -0.00004
   3        2PX        -0.00076  -0.00041   0.00002  -0.00001  -0.00008
   4        2PY         0.00029  -0.00104  -0.00006   0.00001  -0.00003
   5        2PZ         0.00011  -0.00032  -0.00002   0.00001  -0.00005
   6        3S         -0.00037   0.02008  -0.00020   0.00006   0.00029
   7        3PX         0.00366  -0.00107  -0.00003   0.00006   0.00054
   8        3PY        -0.00141   0.00136   0.00039  -0.00016   0.00001
   9        3PZ        -0.00052   0.00037   0.00011  -0.00004   0.00014
  10        4S          0.00592  -0.01757   0.00002   0.00250   0.00357
  11        4PX        -0.00552   0.00567   0.00165  -0.00325  -0.00904
  12        4PY         0.00016   0.00064   0.00000   0.00113  -0.00446
  13        4PZ         0.00016   0.00007  -0.00009   0.00008  -0.00149
  14        5S          0.02816  -0.04302   0.05588   0.05485   0.07569
  15        5PX        -0.01024   0.00654  -0.01809  -0.02120  -0.04152
  16        5PY        -0.00016   0.00165   0.00610   0.00840  -0.00835
  17        5PZ         0.00021   0.00025   0.00177   0.00311   0.00007
  18        6D 0        0.00090  -0.00176  -0.00012   0.00004  -0.00002
  19        6D+1        0.00040  -0.00011   0.00002  -0.00001   0.00005
  20        6D-1        0.00000   0.00041   0.00000   0.00002   0.00012
  21        6D+2       -0.00163   0.00186   0.00021   0.00005  -0.00022
  22        6D-2        0.00115   0.00011   0.00004   0.00001   0.00008
  23 2   C  1S          0.56279  -0.01120   0.00002   0.00000   0.00000
  24        2S          0.46304  -0.00892   0.00004   0.00000  -0.00003
  25        2PX        -0.00084   0.00080   0.00003   0.00000   0.00003
  26        2PY        -0.00046  -0.00026  -0.00001  -0.00001  -0.00001
  27        2PZ        -0.00014  -0.00009   0.00000  -0.00001   0.00000
  28        3S          0.02029  -0.00115  -0.00019  -0.00001   0.00023
  29        3PX         0.00191  -0.00377  -0.00022  -0.00005  -0.00016
  30        3PY         0.00030   0.00146   0.00006   0.00006   0.00001
  31        3PZ         0.00005   0.00051   0.00002   0.00005   0.00001
  32        4S         -0.01845   0.00534   0.00209  -0.00304  -0.00705
  33        4PX        -0.00475   0.00332   0.00074  -0.00139   0.00007
  34        4PY         0.00610  -0.00205  -0.00176  -0.00010   0.00337
  35        4PZ         0.00204  -0.00066  -0.00052  -0.00007   0.00107
  36        5S         -0.04196   0.03028  -0.05119  -0.05564  -0.08701
  37        5PX        -0.00088   0.00769  -0.01307  -0.01433  -0.00363
  38        5PY         0.00651  -0.00443   0.00310   0.00338   0.01640
  39        5PZ         0.00207  -0.00139   0.00145   0.00122   0.00434
  40        6D 0       -0.00158   0.00089  -0.00001   0.00000  -0.00002
  41        6D+1       -0.00053   0.00054   0.00003   0.00002  -0.00001
  42        6D-1        0.00103  -0.00007   0.00002   0.00001   0.00000
  43        6D+2       -0.00007  -0.00140  -0.00001  -0.00002   0.00003
  44        6D-2       -0.00153   0.00154   0.00008   0.00001  -0.00003
  45 3   C  1S          0.00003   0.00002   0.00003   0.00000   0.00000
  46        2S          0.00003   0.00002   0.00004   0.00000   0.00002
  47        2PX        -0.00003  -0.00003   0.00008   0.00000   0.00000
  48        2PY        -0.00008  -0.00008  -0.00002  -0.00001  -0.00002
  49        2PZ        -0.00003  -0.00002   0.00001  -0.00002  -0.00001
  50        3S         -0.00016  -0.00011  -0.00020   0.00004  -0.00041
  51        3PX         0.00003   0.00011  -0.00052   0.00008  -0.00002
  52        3PY         0.00028   0.00021   0.00001   0.00006   0.00010
  53        3PZ         0.00009   0.00006  -0.00004   0.00010   0.00006
  54        4S         -0.00068  -0.00064   0.00033   0.00172   0.00559
  55        4PX         0.00159  -0.00062   0.00136  -0.00031  -0.00057
  56        4PY        -0.00001   0.00086  -0.00124   0.00179   0.00203
  57        4PZ         0.00001   0.00028  -0.00035   0.00007   0.00064
  58        5S         -0.00439  -0.00333   0.00189   0.00151   0.00850
  59        5PX         0.00246   0.00034   0.00135  -0.00166  -0.00047
  60        5PY        -0.00229  -0.00114  -0.00139   0.00135   0.00287
  61        5PZ        -0.00083  -0.00036  -0.00058  -0.00017   0.00036
  62        6D 0       -0.00009  -0.00010  -0.00008   0.00002  -0.00008
  63        6D+1        0.00004   0.00007   0.00000  -0.00006   0.00002
  64        6D-1        0.00014   0.00009   0.00010   0.00002   0.00007
  65        6D+2       -0.00022  -0.00009  -0.00019  -0.00002   0.00000
  66        6D-2        0.00011   0.00023   0.00000   0.00001   0.00005
  67 4   N  1S          0.00000  -0.00005  -0.00002   0.00000   0.00000
  68        2S          0.00003  -0.00008  -0.00006   0.00002  -0.00002
  69        2PX         0.00006  -0.00004   0.00016   0.00005  -0.00005
  70        2PY         0.00008   0.00033  -0.00012  -0.00005  -0.00003
  71        2PZ         0.00002   0.00011  -0.00006  -0.00001  -0.00001
  72        3S         -0.00003   0.00086   0.00023  -0.00011   0.00037
  73        3PX        -0.00018   0.00026  -0.00011  -0.00027   0.00021
  74        3PY        -0.00046  -0.00044   0.00002   0.00026   0.00020
  75        3PZ        -0.00015  -0.00017   0.00008   0.00002   0.00009
  76        4S         -0.00227  -0.00183   0.00270   0.00018  -0.00345
  77        4PX        -0.00011  -0.00120   0.00068   0.00160   0.00063
  78        4PY        -0.00019  -0.00047  -0.00031  -0.00126  -0.00314
  79        4PZ        -0.00014  -0.00011   0.00007  -0.00035  -0.00134
  80        5S         -0.01691   0.02088   0.00186  -0.00159  -0.01486
  81        5PX         0.01090  -0.01048   0.02247   0.01806   0.02323
  82        5PY        -0.00295   0.01285  -0.01350  -0.00979  -0.01474
  83        5PZ        -0.00128   0.00465  -0.00383  -0.00219  -0.00499
  84        6D 0        0.00004   0.00040   0.00006   0.00004   0.00007
  85        6D+1       -0.00006   0.00003   0.00014   0.00002   0.00000
  86        6D-1       -0.00012  -0.00041  -0.00006  -0.00001  -0.00003
  87        6D+2        0.00025   0.00042  -0.00006  -0.00001   0.00005
  88        6D-2       -0.00018   0.00005   0.00030   0.00002   0.00003
  89 5   H  1S         -0.00006   0.00017   0.00006  -0.00005  -0.00023
  90        2S         -0.00001  -0.00472  -0.00099   0.00059   0.00154
  91        3S          0.00224   0.00328  -0.00049  -0.00043   0.01182
  92        4PX         0.00041   0.00212   0.00012   0.00000   0.00033
  93        4PY        -0.00017   0.00117   0.00020   0.00001  -0.00015
  94        4PZ        -0.00005   0.00026   0.00007   0.00000  -0.00015
  95 6   H  1S          0.00015  -0.00012  -0.00002  -0.00001   0.00003
  96        2S         -0.00534  -0.00032   0.00018   0.00010  -0.00028
  97        3S          0.00156   0.00091   0.00125   0.00057  -0.00172
  98        4PX        -0.00063  -0.00044  -0.00002   0.00004  -0.00008
  99        4PY         0.00241   0.00022  -0.00002   0.00000   0.00000
 100        4PZ         0.00077   0.00007  -0.00001   0.00000   0.00001
 101 7   H  1S         -0.00006  -0.00006   0.00004  -0.00005   0.00001
 102        2S          0.00015   0.00012  -0.00068   0.00052  -0.00015
 103        3S          0.00169   0.00173  -0.00055  -0.00009   0.00095
 104        4PX        -0.00007   0.00007  -0.00025   0.00004   0.00002
 105        4PY         0.00004  -0.00002  -0.00011   0.00001  -0.00010
 106        4PZ         0.00002   0.00000  -0.00003   0.00003  -0.00002
 107 8   N  1S         -0.00005   0.00000   0.00000   0.00000   0.00000
 108        2S         -0.00007   0.00004   0.00000  -0.00001  -0.00001
 109        2PX         0.00028   0.00002   0.00002   0.00001   0.00001
 110        2PY         0.00020   0.00009  -0.00002   0.00000   0.00001
 111        2PZ         0.00006   0.00003  -0.00001   0.00001   0.00001
 112        3S          0.00079  -0.00011   0.00005   0.00010   0.00013
 113        3PX        -0.00057  -0.00026  -0.00011  -0.00007  -0.00002
 114        3PY        -0.00013  -0.00048   0.00013   0.00002  -0.00004
 115        3PZ        -0.00003  -0.00016   0.00006  -0.00002  -0.00002
 116        4S         -0.00096  -0.00171  -0.00078  -0.00140  -0.00040
 117        4PX         0.00079   0.00014   0.00016   0.00009  -0.00038
 118        4PY        -0.00112  -0.00001  -0.00094   0.00023   0.00164
 119        4PZ        -0.00039   0.00000  -0.00037   0.00019   0.00056
 120        5S          0.02359  -0.01395   0.01784   0.01037   0.01839
 121        5PX         0.02064  -0.00740   0.01173   0.00743   0.00725
 122        5PY         0.00032   0.00280  -0.00376  -0.00248   0.00264
 123        5PZ         0.00000   0.00083  -0.00174  -0.00095   0.00082
 124        6D 0        0.00045   0.00003   0.00003   0.00000   0.00004
 125        6D+1       -0.00015  -0.00008   0.00001   0.00001   0.00002
 126        6D-1       -0.00024  -0.00008  -0.00002   0.00000  -0.00002
 127        6D+2       -0.00011   0.00017   0.00001   0.00000  -0.00001
 128        6D-2       -0.00048  -0.00025   0.00002   0.00001   0.00005
 129 9   C  1S         -0.00003  -0.00025   0.56301  -0.00114   0.00000
 130        2S         -0.00001  -0.00019   0.46322  -0.00098   0.00000
 131        2PX        -0.00002  -0.00002  -0.00107   0.00016   0.00007
 132        2PY         0.00000  -0.00003   0.00039  -0.00018   0.00007
 133        2PZ         0.00001   0.00001   0.00043   0.00043   0.00004
 134        3S         -0.00027  -0.00028   0.01969   0.00061   0.00019
 135        3PX         0.00010   0.00009   0.00120  -0.00017  -0.00018
 136        3PY        -0.00005   0.00012  -0.00026   0.00026  -0.00019
 137        3PZ        -0.00010  -0.00009  -0.00167  -0.00102  -0.00011
 138        4S          0.00150   0.00278  -0.01978  -0.00190  -0.00415
 139        4PX        -0.00022  -0.00069   0.00175   0.00239   0.00307
 140        4PY         0.00067   0.00033  -0.00231  -0.00229  -0.00034
 141        4PZ         0.00068   0.00066  -0.00200   0.00178   0.00199
 142        5S         -0.00809   0.00162  -0.04230   0.01456  -0.01017
 143        5PX         0.00068  -0.00216   0.00347   0.00193   0.00379
 144        5PY         0.00024   0.00299  -0.00357  -0.00273  -0.00767
 145        5PZ        -0.00136  -0.00103  -0.00698   0.00385   0.00089
 146        6D 0       -0.00001  -0.00003   0.00015  -0.00034   0.00011
 147        6D+1       -0.00002  -0.00002   0.00004  -0.00035  -0.00010
 148        6D-1       -0.00001   0.00002   0.00012   0.00038  -0.00022
 149        6D+2       -0.00006  -0.00007  -0.00016  -0.00004   0.00000
 150        6D-2        0.00002   0.00001   0.00126   0.00035  -0.00014
 151 10  C  1S          0.00000   0.00000   0.00112   0.56295   0.00000
 152        2S          0.00000   0.00000   0.00088   0.46315  -0.00003
 153        2PX        -0.00001  -0.00001  -0.00013  -0.00024   0.00001
 154        2PY         0.00001  -0.00002   0.00016  -0.00003   0.00003
 155        2PZ        -0.00001  -0.00002  -0.00044  -0.00034  -0.00001
 156        3S          0.00009   0.00007   0.00041   0.01979   0.00052
 157        3PX         0.00003   0.00005   0.00033   0.00080  -0.00001
 158        3PY        -0.00003   0.00008  -0.00038  -0.00036  -0.00002
 159        3PZ         0.00005   0.00009   0.00113   0.00126   0.00002
 160        4S         -0.00152  -0.00028   0.00367  -0.01364  -0.00433
 161        4PX        -0.00001   0.00043  -0.00016   0.00163   0.00014
 162        4PY        -0.00033  -0.00055   0.00043  -0.00173  -0.00115
 163        4PZ         0.00028  -0.00020  -0.00124   0.00191   0.00138
 164        5S          0.00490   0.00756   0.01847  -0.02020  -0.01387
 165        5PX        -0.00051  -0.00063  -0.00222   0.00124   0.00052
 166        5PY         0.00077   0.00097   0.00237  -0.00188  -0.00198
 167        5PZ        -0.00093  -0.00167  -0.00284   0.00372   0.00341
 168        6D 0        0.00001   0.00002  -0.00067  -0.00049   0.00000
 169        6D+1       -0.00001  -0.00001  -0.00043  -0.00039   0.00004
 170        6D-1        0.00002   0.00003   0.00053   0.00052   0.00012
 171        6D+2        0.00001  -0.00001   0.00007  -0.00001   0.00001
 172        6D-2        0.00000  -0.00001   0.00010   0.00022   0.00003
 173 11  H  1S          0.00002   0.00002   0.00005  -0.00008  -0.00005
 174        2S         -0.00045  -0.00040  -0.00263  -0.00039  -0.00050
 175        3S         -0.00103   0.00135   0.00321  -0.00313  -0.00135
 176        4PX         0.00004   0.00008   0.00150   0.00019   0.00000
 177        4PY         0.00000  -0.00006   0.00129   0.00008   0.00006
 178        4PZ        -0.00006  -0.00008  -0.00080  -0.00012   0.00007
 179 12  H  1S          0.00002   0.00004   0.00007  -0.00012  -0.00009
 180        2S         -0.00018  -0.00036  -0.00251  -0.00015   0.00115
 181        3S          0.00052   0.00249   0.00165  -0.00309  -0.00152
 182        4PX        -0.00003  -0.00002  -0.00084  -0.00011   0.00004
 183        4PY        -0.00002  -0.00001  -0.00144  -0.00011   0.00016
 184        4PZ        -0.00003  -0.00004  -0.00124  -0.00020   0.00009
 185 13  H  1S         -0.00004   0.00000  -0.00002   0.00022   0.00001
 186        2S          0.00024  -0.00003  -0.00112  -0.00336   0.00013
 187        3S         -0.00016  -0.00067  -0.00021   0.00377   0.00145
 188        4PX        -0.00001   0.00001   0.00027   0.00151  -0.00001
 189        4PY         0.00005   0.00000  -0.00025  -0.00133   0.00007
 190        4PZ        -0.00001  -0.00001  -0.00013  -0.00063  -0.00002
 191 14  H  1S         -0.00001   0.00000  -0.00003   0.00021   0.00013
 192        2S          0.00016   0.00017  -0.00096  -0.00325  -0.00056
 193        3S         -0.00043  -0.00027   0.00002   0.00410   0.00164
 194        4PX         0.00001   0.00003   0.00010   0.00075   0.00005
 195        4PY        -0.00005  -0.00003   0.00026   0.00158  -0.00014
 196        4PZ         0.00002   0.00006   0.00011   0.00116   0.00006
 197 15  H  1S         -0.00001  -0.00004  -0.00008   0.00019   0.00001
 198        2S          0.00008   0.00036  -0.00072  -0.00262   0.00000
 199        3S          0.00016  -0.00013  -0.00051   0.00301  -0.00005
 200        4PX        -0.00002   0.00000  -0.00023  -0.00148   0.00002
 201        4PY         0.00004   0.00003  -0.00015  -0.00090   0.00004
 202        4PZ        -0.00002  -0.00002   0.00011   0.00090  -0.00004
 203 16  C  1S          0.00008   0.00001   0.00001   0.00000   0.00000
 204        2S          0.00008   0.00003   0.00001  -0.00001  -0.00001
 205        2PX        -0.00001   0.00001   0.00000  -0.00002   0.00001
 206        2PY        -0.00003  -0.00001  -0.00001   0.00000   0.00003
 207        2PZ        -0.00001   0.00000   0.00000   0.00001   0.00001
 208        3S         -0.00019  -0.00024  -0.00010   0.00002   0.00010
 209        3PX         0.00002  -0.00012  -0.00002   0.00009  -0.00005
 210        3PY         0.00010   0.00002   0.00007   0.00002  -0.00008
 211        3PZ         0.00004   0.00001   0.00001  -0.00004  -0.00003
 212        4S          0.00254   0.00185   0.00112   0.00051  -0.00094
 213        4PX         0.00079   0.00071   0.00038   0.00000  -0.00021
 214        4PY        -0.00013   0.00005   0.00051   0.00000  -0.00002
 215        4PZ        -0.00005   0.00008   0.00041   0.00021   0.00001
 216        5S          0.01517   0.00271  -0.00044  -0.00351   0.00519
 217        5PX         0.00480   0.00083  -0.00008  -0.00096   0.00153
 218        5PY         0.00021   0.00020  -0.00038  -0.00047   0.00075
 219        5PZ         0.00009   0.00005  -0.00002   0.00018   0.00053
 220        6D 0       -0.00003   0.00001   0.00003   0.00001   0.00003
 221        6D+1        0.00002   0.00001   0.00000  -0.00002  -0.00003
 222        6D-1        0.00002   0.00001   0.00000  -0.00001  -0.00001
 223        6D+2        0.00001  -0.00003   0.00001   0.00001   0.00000
 224        6D-2        0.00006   0.00005   0.00002  -0.00002  -0.00007
 225 17  H  1S          0.00000   0.00002   0.00005   0.00002   0.00002
 226        2S         -0.00009  -0.00032  -0.00045  -0.00013  -0.00007
 227        3S          0.00114  -0.00121   0.00141   0.00094   0.00054
 228        4PX        -0.00005  -0.00005  -0.00002   0.00001  -0.00002
 229        4PY        -0.00001  -0.00001  -0.00001   0.00001   0.00001
 230        4PZ         0.00003   0.00007   0.00006   0.00001   0.00000
 231 18  H  1S          0.00000   0.00001   0.00003   0.00001   0.00002
 232        2S         -0.00010  -0.00025  -0.00027  -0.00011  -0.00004
 233        3S          0.00115  -0.00122   0.00145   0.00146   0.00053
 234        4PX        -0.00005  -0.00005  -0.00003   0.00002  -0.00003
 235        4PY         0.00001   0.00002   0.00000  -0.00001  -0.00001
 236        4PZ        -0.00002  -0.00006  -0.00005  -0.00001   0.00000
 237 19  H  1S          0.00001   0.00002  -0.00001   0.00000  -0.00001
 238        2S         -0.00024  -0.00029   0.00006   0.00004   0.00013
 239        3S          0.00196  -0.00031   0.00103   0.00027   0.00061
 240        4PX         0.00001  -0.00004   0.00000  -0.00001   0.00002
 241        4PY        -0.00003  -0.00007   0.00003   0.00002   0.00003
 242        4PZ        -0.00001  -0.00003  -0.00001  -0.00001   0.00000
 243 20  Cl 1S          0.00000   0.00000   0.00000   0.00000  -0.12180
 244        2S          0.00000   0.00000   0.00000   0.00000  -0.32695
 245        3S          0.00002   0.00003   0.00000   0.00003   0.49749
 246        4S         -0.00005  -0.00008  -0.00001  -0.00008   0.61081
 247        5S          0.00014   0.00024   0.00007   0.00027   0.05831
 248        6S         -0.00037  -0.00048  -0.00023  -0.00065  -0.02348
 249        7S          0.00102  -0.00040   0.00327   0.00373   0.02165
 250        7PX        -0.00035  -0.00018  -0.00089  -0.00096  -0.00915
 251        7PY         0.00006   0.00036  -0.00056  -0.00078  -0.00238
 252        7PZ         0.00010   0.00000  -0.00022   0.00015   0.00099
 253        8PX         0.00001   0.00001   0.00001   0.00003  -0.00083
 254        8PY         0.00001   0.00001   0.00001   0.00003  -0.00030
 255        8PZ         0.00000   0.00000  -0.00002   0.00000   0.00003
 256        9PX         0.00000   0.00001   0.00000   0.00001   0.00029
 257        9PY         0.00000   0.00000   0.00001   0.00001   0.00011
 258        9PZ         0.00000   0.00000  -0.00001   0.00000  -0.00001
 259       10PX        -0.00004  -0.00004  -0.00006  -0.00010  -0.00006
 260       10PY        -0.00002  -0.00003  -0.00006  -0.00009  -0.00006
 261       10PZ        -0.00001  -0.00001   0.00006   0.00001  -0.00002
 262       11PX         0.00007   0.00006   0.00015   0.00019  -0.00044
 263       11PY         0.00004   0.00007   0.00015   0.00014  -0.00004
 264       11PZ         0.00002   0.00001  -0.00013   0.00000   0.00009
 265       12PX         0.00011   0.00053  -0.00007  -0.00020   0.00348
 266       12PY         0.00002  -0.00008   0.00001   0.00019   0.00050
 267       12PZ        -0.00010  -0.00007   0.00036  -0.00008  -0.00055
 268       13D 0        0.00001   0.00002   0.00002   0.00001   0.00006
 269       13D+1        0.00001   0.00000  -0.00003   0.00001   0.00005
 270       13D-1        0.00000  -0.00001  -0.00001   0.00003   0.00000
 271       13D+2        0.00001  -0.00003  -0.00001   0.00002  -0.00010
 272       13D-2        0.00000  -0.00002  -0.00004  -0.00005  -0.00001
                          11        12        13        14        15
                           O         O         O         O         O
     Eigenvalues --    -7.05104  -7.05083  -7.05058  -1.11192  -0.99511
   1 1   C  1S          0.00000   0.00000   0.00000  -0.03207  -0.02626
   2        2S          0.00000   0.00000   0.00000  -0.04904  -0.04030
   3        2PX         0.00001   0.00000   0.00000  -0.02158   0.00227
   4        2PY         0.00000   0.00000   0.00000  -0.02495  -0.03445
   5        2PZ         0.00000   0.00000   0.00000  -0.00795  -0.01135
   6        3S         -0.00002   0.00000   0.00000   0.12288   0.10270
   7        3PX        -0.00006   0.00002   0.00001  -0.03195   0.00322
   8        3PY        -0.00003   0.00000   0.00000  -0.03731  -0.05519
   9        3PZ        -0.00001   0.00000   0.00000  -0.01187  -0.01805
  10        4S          0.00007   0.00014   0.00002   0.04200   0.06782
  11        4PX        -0.00019  -0.00025  -0.00009  -0.00230  -0.01184
  12        4PY        -0.00005  -0.00003  -0.00001  -0.00324  -0.00503
  13        4PZ        -0.00001   0.00000   0.00000  -0.00105  -0.00160
  14        5S          0.00257   0.00144   0.00018  -0.05196   0.29828
  15        5PX        -0.00121  -0.00067  -0.00012   0.02244  -0.06732
  16        5PY         0.00016  -0.00016  -0.00018  -0.00537  -0.01559
  17        5PZ         0.00011  -0.00005  -0.00001   0.00024  -0.00202
  18        6D 0        0.00001   0.00000   0.00000  -0.00823  -0.00445
  19        6D+1       -0.00001   0.00000   0.00000   0.00162   0.00136
  20        6D-1        0.00000   0.00000   0.00000   0.00594   0.00752
  21        6D+2       -0.00002   0.00001   0.00001  -0.00213  -0.01291
  22        6D-2       -0.00004  -0.00001   0.00000   0.00542   0.00393
  23 2   C  1S          0.00000   0.00000   0.00000  -0.03551   0.01952
  24        2S          0.00000   0.00000   0.00000  -0.05434   0.02994
  25        2PX         0.00000   0.00000   0.00000  -0.00650   0.03048
  26        2PY         0.00000   0.00000   0.00000  -0.03402   0.01514
  27        2PZ         0.00000   0.00000   0.00000  -0.01114   0.00465
  28        3S          0.00000   0.00001   0.00000   0.13606  -0.07592
  29        3PX        -0.00003  -0.00001   0.00000  -0.01079   0.04793
  30        3PY         0.00001   0.00000   0.00000  -0.05053   0.02587
  31        3PZ         0.00000   0.00000   0.00000  -0.01649   0.00802
  32        4S         -0.00019  -0.00024  -0.00006   0.05654  -0.06377
  33        4PX        -0.00002  -0.00007  -0.00001   0.00090  -0.00070
  34        4PY         0.00009   0.00008   0.00002  -0.00499   0.00939
  35        4PZ         0.00002   0.00002   0.00001  -0.00175   0.00283
  36        5S         -0.00295  -0.00131  -0.00011   0.05486  -0.29903
  37        5PX        -0.00037  -0.00007   0.00009   0.00252  -0.03749
  38        5PY         0.00038   0.00022   0.00008  -0.00408   0.05287
  39        5PZ         0.00010   0.00008   0.00001  -0.00248   0.01651
  40        6D 0        0.00000   0.00000   0.00000  -0.00877   0.00401
  41        6D+1        0.00000   0.00000   0.00000   0.00139  -0.00436
  42        6D-1        0.00000   0.00000   0.00000   0.00725  -0.00308
  43        6D+2       -0.00001   0.00000   0.00000  -0.00467   0.00199
  44        6D-2        0.00000   0.00000   0.00000   0.00465  -0.01346
  45 3   C  1S          0.00000   0.00000   0.00000  -0.05766  -0.00625
  46        2S          0.00000   0.00000   0.00000  -0.08827  -0.00962
  47        2PX         0.00000   0.00000   0.00000   0.01486   0.06829
  48        2PY         0.00000   0.00000   0.00000   0.04421  -0.01959
  49        2PZ         0.00000   0.00000   0.00000   0.01429  -0.00720
  50        3S          0.00000   0.00000   0.00000   0.22762   0.02532
  51        3PX         0.00001   0.00001   0.00001   0.02091   0.09808
  52        3PY         0.00000   0.00000   0.00000   0.06453  -0.02880
  53        3PZ         0.00000   0.00000   0.00000   0.02090  -0.01046
  54        4S          0.00015   0.00006   0.00006   0.06709   0.00829
  55        4PX         0.00001   0.00001   0.00001  -0.00510   0.00828
  56        4PY         0.00004   0.00002   0.00002  -0.01177  -0.00457
  57        4PZ         0.00001   0.00000   0.00001  -0.00406  -0.00220
  58        5S         -0.00005  -0.00020   0.00000   0.08634   0.01564
  59        5PX        -0.00008   0.00013   0.00009  -0.00198   0.02980
  60        5PY         0.00006  -0.00013  -0.00005   0.02581  -0.00871
  61        5PZ         0.00001  -0.00004   0.00000   0.00978  -0.00223
  62        6D 0        0.00000   0.00000   0.00000  -0.01368  -0.00260
  63        6D+1        0.00000   0.00000   0.00000  -0.00016   0.00526
  64        6D-1        0.00000   0.00000   0.00000   0.00900  -0.00386
  65        6D+2        0.00000   0.00000   0.00000  -0.00091   0.01435
  66        6D-2        0.00000   0.00000   0.00000   0.00051   0.01677
  67 4   N  1S          0.00000   0.00000   0.00000  -0.06343  -0.08074
  68        2S          0.00000   0.00000   0.00000  -0.09947  -0.12720
  69        2PX         0.00000   0.00000   0.00000  -0.03118  -0.00407
  70        2PY         0.00000   0.00000   0.00000   0.01288   0.00063
  71        2PZ         0.00000   0.00000   0.00000   0.00525   0.00153
  72        3S          0.00000   0.00000   0.00000   0.27098   0.35366
  73        3PX        -0.00001  -0.00001  -0.00001  -0.04474  -0.00307
  74        3PY         0.00000   0.00000   0.00000   0.01839   0.00068
  75        3PZ         0.00000   0.00000   0.00000   0.00751   0.00221
  76        4S         -0.00001  -0.00001   0.00002   0.18410   0.25198
  77        4PX         0.00010   0.00008   0.00008  -0.02429   0.00781
  78        4PY        -0.00006  -0.00003  -0.00002   0.00861  -0.01221
  79        4PZ        -0.00002  -0.00001   0.00001   0.00468  -0.00254
  80        5S         -0.00011  -0.00021   0.00007  -0.07246  -0.17934
  81        5PX         0.00029   0.00040   0.00020  -0.02249   0.07584
  82        5PY        -0.00010  -0.00028  -0.00009   0.01917  -0.05437
  83        5PZ        -0.00007  -0.00006  -0.00005   0.00368  -0.02024
  84        6D 0        0.00000   0.00000   0.00000  -0.00824  -0.00690
  85        6D+1        0.00000   0.00000   0.00000  -0.00075   0.00008
  86        6D-1        0.00000   0.00000   0.00000   0.00392   0.00425
[...]
    20. BD (   1) C  16 - H  18          1.98683    -0.59028  261(v),124(v)
    21. BD (   1) C  16 - H  19          1.99026    -0.59629  257(v)
    22. CR (   1) C   1                  1.99916   -10.10032  108(v),262(v),57(v),258(v)
                                                    256(v),95(v),252(g)
    23. CR (   1) C   2                  1.99917   -10.12025  40(v),263(v),255(v),261(v)
                                                    252(g),113(v)
    24. CR (   1) C   3                  1.99922   -10.17560  263(v),262(v),254(v),257(v)
                                                    118(v)
    25. CR (   1) N   4                  1.99928   -14.25729  142(v),41(v),77(v),74(v)
    26. CR (   1) N   8                  1.99929   -14.27828  59(v),201(v),77(v),78(v)
    27. CR (   1) C   9                  1.99927   -10.09765  258(v),254(v),174(v),160(v)
                                                    159(v)
    28. CR (   1) C  10                  1.99934   -10.03221  143(v),189(v)
    29. CR (   1) C  16                  1.99933   -10.14386  257(v),261(v)
    35. LP (   1) N   8                  1.51551    -0.33275  259(v),253(v),271(v),270(v)
                                                    58(v),76(v),200(v)
    40. RY*(   1) C   1                  0.00497     1.25299   
    41. RY*(   2) C   1                  0.00355     1.00238   
    42. RY*(   3) C   1                  0.00254     0.58125   
    43. RY*(   4) C   1                  0.00142     0.77410   
    44. RY*(   5) C   1                  0.00062     1.42969   
    45. RY*(   6) C   1                  0.00033     2.10607   
    46. RY*(   7) C   1                  0.00028     0.75197   
    47. RY*(   8) C   1                  0.00012     2.77245   
    48. RY*(   9) C   1                  0.00008     1.63837   
    49. RY*(  10) C   1                  0.00007     0.79578   
    50. RY*(  11) C   1                  0.00007     1.84816   
    51. RY*(  12) C   1                  0.00006     1.52983   
    52. RY*(  13) C   1                  0.00001     2.55943   
    53. RY*(  14) C   1                  0.00001     1.86085   
    54. RY*(  15) C   1                  0.00002     3.19110   
    55. RY*(  16) C   1                  0.00000    21.11251   
    56. RY*(  17) C   1                  0.00001     2.21919   
    57. RY*(   1) C   2                  0.00417     1.45907   
    58. RY*(   2) C   2                  0.00238     0.69260   
    59. RY*(   3) C   2                  0.00136     1.03772   
    60. RY*(   4) C   2                  0.00060     1.30939   
    61. RY*(   5) C   2                  0.00056     1.25567   
    62. RY*(   6) C   2                  0.00033     1.24009   
    63. RY*(   7) C   2                  0.00021     0.93892   
    64. RY*(   8) C   2                  0.00012     2.03273   
    65. RY*(   9) C   2                  0.00007     0.86160   
    66. RY*(  10) C   2                  0.00007     3.60877   
    67. RY*(  11) C   2                  0.00005     1.81928   
    68. RY*(  12) C   2                  0.00002     1.64722   
    69. RY*(  13) C   2                  0.00002     1.90062   
    70. RY*(  14) C   2                  0.00003     1.83032   
    71. RY*(  15) C   2                  0.00000    20.22506   
    72. RY*(  16) C   2                  0.00000     2.66540   
    73. RY*(  17) C   2                  0.00001     1.90430   
    74. RY*(   1) C   3                  0.00473     1.17223   
    75. RY*(   2) C   3                  0.00461     0.80084   
    76. RY*(   3) C   3                  0.00252     1.25242   
    77. RY*(   4) C   3                  0.00211     1.10456   
    78. RY*(   5) C   3                  0.00137     0.69481   
    79. RY*(   6) C   3                  0.00043     0.92505   
    80. RY*(   7) C   3                  0.00029     2.05453   
    81. RY*(   8) C   3                  0.00016     2.83042   
    82. RY*(   9) C   3                  0.00012     2.42085   
    83. RY*(  10) C   3                  0.00010     1.74721   
    84. RY*(  11) C   3                  0.00008     1.87403   
    85. RY*(  12) C   3                  0.00005     1.43572   
    86. RY*(  13) C   3                  0.00005     1.55047   
    87. RY*(  14) C   3                  0.00001     1.40356   
    88. RY*(  15) C   3                  0.00001     2.70857   
    89. RY*(  16) C   3                  0.00001     2.00335   
    90. RY*(  17) C   3                  0.00000    19.95245   
    91. RY*(   1) N   4                  0.00471     0.97710   
    92. RY*(   2) N   4                  0.00313     1.21478   
    93. RY*(   3) N   4                  0.00172     1.12886   
    94. RY*(   4) N   4                  0.00147     1.01934   
    95. RY*(   5) N   4                  0.00133     1.03632   
    96. RY*(   6) N   4                  0.00072     1.31787   
    97. RY*(   7) N   4                  0.00047     1.82885   
    98. RY*(   8) N   4                  0.00031     1.12071   
    99. RY*(   9) N   4                  0.00025     1.41027   
   100. RY*(  10) N   4                  0.00015     2.35436   
   101. RY*(  11) N   4                  0.00011     2.28477   
   102. RY*(  12) N   4                  0.00005     3.36372   
   103. RY*(  13) N   4                  0.00002     1.88221   
   104. RY*(  14) N   4                  0.00001     4.14080   
   105. RY*(  15) N   4                  0.00002     3.55019   
   106. RY*(  16) N   4                  0.00000    34.60522   
   107. RY*(  17) N   4                  0.00000     3.71870   
   108. RY*(   1) H   5                  0.00310     1.34253   
   109. RY*(   2) H   5                  0.00022     1.59881   
   110. RY*(   3) H   5                  0.00014     2.21223   
   111. RY*(   4) H   5                  0.00011     1.83184   
   112. RY*(   5) H   5                  0.00006     1.94966   
   113. RY*(   1) H   6                  0.00035     1.36216   
   114. RY*(   2) H   6                  0.00021     1.72699   
   115. RY*(   3) H   6                  0.00022     1.55482   
   116. RY*(   4) H   6                  0.00004     2.51285   
   117. RY*(   5) H   6                  0.00004     1.55458   
   118. RY*(   1) H   7                  0.00056     1.43544   
   119. RY*(   2) H   7                  0.00026     1.52666   
   120. RY*(   3) H   7                  0.00015     1.29957   
   121. RY*(   4) H   7                  0.00005     2.63372   
   122. RY*(   5) H   7                  0.00005     1.77296   
   123. RY*(   1) N   8                  0.00251     1.71752   
   124. RY*(   2) N   8                  0.00222     0.65022   
   125. RY*(   3) N   8                  0.00145     1.32946   
   126. RY*(   4) N   8                  0.00077     1.12521   
   127. RY*(   5) N   8                  0.00075     2.04395   
   128. RY*(   6) N   8                  0.00045     1.77345   
   129. RY*(   7) N   8                  0.00032     1.87277   
   130. RY*(   8) N   8                  0.00021     1.24817   
   131. RY*(   9) N   8                  0.00008     2.31330   
   132. RY*(  10) N   8                  0.00006     1.21921   
   133. RY*(  11) N   8                  0.00005     2.05725   
   134. RY*(  12) N   8                  0.00002     1.62262   
   135. RY*(  13) N   8                  0.00002     1.78732   
   136. RY*(  14) N   8                  0.00001     3.44177   
   137. RY*(  15) N   8                  0.00002     4.33451   
   138. RY*(  16) N   8                  0.00000    34.80514   
   139. RY*(  17) N   8                  0.00000     3.73998   
   140. RY*(   1) C   9                  0.00524     0.74748   
   141. RY*(   2) C   9                  0.00183     0.77850   
   142. RY*(   3) C   9                  0.00128     0.98447   
   143. RY*(   4) C   9                  0.00085     1.19172   
   144. RY*(   5) C   9                  0.00050     1.29718   
   145. RY*(   6) C   9                  0.00041     1.60810   
   146. RY*(   7) C   9                  0.00030     1.85853   
   147. RY*(   8) C   9                  0.00014     2.04685   
   148. RY*(   9) C   9                  0.00010     1.37520   
   149. RY*(  10) C   9                  0.00007     1.24640   
   150. RY*(  11) C   9                  0.00004     1.52011   
   151. RY*(  12) C   9                  0.00001     1.95776   
   152. RY*(  13) C   9                  0.00001     2.33530   
   153. RY*(  14) C   9                  0.00001     2.55308   
   154. RY*(  15) C   9                  0.00001     1.43113   
   155. RY*(  16) C   9                  0.00001     1.43758   
   156. RY*(  17) C   9                  0.00000    22.79574   
   157. RY*(   1) C  10                  0.00160     0.64624   
   158. RY*(   2) C  10                  0.00106     0.73327   
   159. RY*(   3) C  10                  0.00048     1.40806   
   160. RY*(   4) C  10                  0.00028     0.84186   
   161. RY*(   5) C  10                  0.00009     0.66112   
   162. RY*(   6) C  10                  0.00008     1.45494   
   163. RY*(   7) C  10                  0.00006     1.15841   
   164. RY*(   8) C  10                  0.00003     1.60904   
   165. RY*(   9) C  10                  0.00004     1.61534   
   166. RY*(  10) C  10                  0.00001     2.86972   
   167. RY*(  11) C  10                  0.00001     1.53694   
   168. RY*(  12) C  10                  0.00000    22.80704   
   169. RY*(  13) C  10                  0.00001     1.50794   
   170. RY*(  14) C  10                  0.00001     1.67986   
   171. RY*(  15) C  10                  0.00001     2.92705   
   172. RY*(  16) C  10                  0.00000     1.85868   
   173. RY*(  17) C  10                  0.00000     1.54753   
   174. RY*(   1) H  11                  0.00220     1.11031   
   175. RY*(   2) H  11                  0.00025     1.69130   
   176. RY*(   3) H  11                  0.00011     1.93049   
   177. RY*(   4) H  11                  0.00009     1.90026   
   178. RY*(   5) H  11                  0.00004     2.45707   
   179. RY*(   1) H  12                  0.00110     0.83315   
   180. RY*(   2) H  12                  0.00016     1.77015   
   181. RY*(   3) H  12                  0.00013     1.95427   
   182. RY*(   4) H  12                  0.00009     1.66872   
   183. RY*(   5) H  12                  0.00004     2.69529   
   184. RY*(   1) H  13                  0.00052     0.97210   
   185. RY*(   2) H  13                  0.00014     1.58923   
   186. RY*(   3) H  13                  0.00010     1.83815   
   187. RY*(   4) H  13                  0.00007     1.99831   
   188. RY*(   5) H  13                  0.00002     2.56874   
   189. RY*(   1) H  14                  0.00113     0.88160   
   190. RY*(   2) H  14                  0.00014     1.84720   
   191. RY*(   3) H  14                  0.00011     1.79448   
   192. RY*(   4) H  14                  0.00008     1.80322   
   193. RY*(   5) H  14                  0.00003     2.68354   
   194. RY*(   1) H  15                  0.00099     0.76386   
   195. RY*(   2) H  15                  0.00017     1.87621   
   196. RY*(   3) H  15                  0.00013     1.77221   
   197. RY*(   4) H  15                  0.00008     1.77143   
   198. RY*(   5) H  15                  0.00003     2.68921   
   199. RY*(   1) C  16                  0.00270     0.69911   
   200. RY*(   2) C  16                  0.00140     0.84839   
   201. RY*(   3) C  16                  0.00066     0.97651   
   202. RY*(   4) C  16                  0.00021     1.28954   
   203. RY*(   5) C  16                  0.00019     0.46469   
   204. RY*(   6) C  16                  0.00009     2.70767   
   205. RY*(   7) C  16                  0.00006     0.78097   
   206. RY*(   8) C  16                  0.00007     0.84148   
   207. RY*(   9) C  16                  0.00002     0.67455   
   208. RY*(  10) C  16                  0.00001     2.20530   
   209. RY*(  11) C  16                  0.00000    21.79833   
   210. RY*(  12) C  16                  0.00000     2.95020   
   211. RY*(  13) C  16                  0.00000     1.73684   
   212. RY*(  14) C  16                  0.00000     2.84394   
   213. RY*(  15) C  16                  0.00000     1.63280   
   214. RY*(  16) C  16                  0.00000     1.09723   
   215. RY*(  17) C  16                  0.00000     1.81045   
   216. RY*(   1) H  17                  0.00047     0.57250   
   217. RY*(   2) H  17                  0.00015     1.81952   
   218. RY*(   3) H  17                  0.00012     1.78116   
   219. RY*(   4) H  17                  0.00007     1.99992   
   220. RY*(   5) H  17                  0.00004     2.43200   
   221. RY*(   1) H  18                  0.00046     0.58306   
   222. RY*(   2) H  18                  0.00015     1.80757   
   223. RY*(   3) H  18                  0.00012     1.77842   
   224. RY*(   4) H  18                  0.00007     2.03913   
   225. RY*(   5) H  18                  0.00004     2.40580   
   226. RY*(   1) H  19                  0.00036     0.71808   
   227. RY*(   2) H  19                  0.00013     1.93637   
   228. RY*(   3) H  19                  0.00012     1.67200   
   229. RY*(   4) H  19                  0.00005     1.66919   
   230. RY*(   5) H  19                  0.00003     2.53549   
   252. BD*(   1) C   1 - C   2          0.01148     0.55193   
   253. BD*(   2) C   1 - C   2          0.22446    -0.01769  259(v),42(g),61(g)
   254. BD*(   1) C   1 - N   4          0.02256     0.39555   
   255. BD*(   1) C   1 - H   5          0.06711     0.41307   
   256. BD*(   1) C   2 - H   6          0.01007     0.37346   
   257. BD*(   1) C   2 - N   8          0.02316     0.37289   
   258. BD*(   1) C   3 - N   4          0.02147     0.43281   
   259. BD*(   2) C   3 - N   4          0.54963    -0.10362  253(v),75(g),264(v),94(g)
                                                    42(v),99(g)
   260. BD*(   1) C   3 - H   7          0.01224     0.32783   
   261. BD*(   1) C   3 - N   8          0.02002     0.41419   
   262. BD*(   1) N   4 - C   9          0.03291     0.27605   
   263. BD*(   1) N   8 - C  16          0.01615     0.25596   
   264. BD*(   1) C   9 - C  10          0.00784     0.37146   
   265. BD*(   1) C   9 - H  11          0.02750     0.40560   
   266. BD*(   1) C   9 - H  12          0.01509     0.36130   
   267. BD*(   1) C  10 - H  13          0.00412     0.39521   
   268. BD*(   1) C  10 - H  14          0.00912     0.41577   
   269. BD*(   1) C  10 - H  15          0.00792     0.38175   
   270. BD*(   1) C  16 - H  17          0.00933     0.32237   
   271. BD*(   1) C  16 - H  18          0.00978     0.32258   
   272. BD*(   1) C  16 - H  19          0.00290     0.31874   
       -------------------------------
              Total Lewis   58.90746  ( 97.9954%)
        Valence non-Lewis    1.10487  (  1.8380%)
        Rydberg non-Lewis    0.10012  (  0.1666%)
       -------------------------------
            Total unit  1   60.11245  (100.0000%)
           Charge unit  1    0.88755

 Molecular unit  2  (Cl)
    30. CR (   1)Cl  20                  2.00000  -100.79488  255(r)
    31. CR (   2)Cl  20                  1.99998    -9.75231  255(r),265(r)
    32. CR (   3)Cl  20                  2.00000    -7.05014  255(r)
    33. CR (   4)Cl  20                  2.00000    -7.04986   
    34. CR (   5)Cl  20                  2.00000    -7.04991   
    36. LP (   1)Cl  20                  1.99898    -0.67518  255(r),265(r),108(r)
    37. LP (   2)Cl  20                  1.98925    -0.18257  268(r),253(r),269(r),266(r)
    38. LP (   3)Cl  20                  1.97439    -0.18219  265(r),255(r),266(r),140(r)
                                                    253(r),269(r),254(r),175(r)
    39. LP (   4)Cl  20                  1.92432    -0.25338  255(r),265(r),109(r),252(r)
                                                    266(r),41(r),268(r),108(r)
                                                    140(r),110(r)
   231. RY*(   1)Cl  20                  0.00023     0.92825   
   232. RY*(   2)Cl  20                  0.00017     0.73991   
   233. RY*(   3)Cl  20                  0.00011     0.70834   
   234. RY*(   4)Cl  20                  0.00006     0.50933   
   235. RY*(   5)Cl  20                  0.00002     0.73145   
   236. RY*(   6)Cl  20                  0.00001     0.98054   
   237. RY*(   7)Cl  20                  0.00000     5.12422   
   238. RY*(   8)Cl  20                  0.00000    23.22359   
   239. RY*(   9)Cl  20                  0.00000    17.46916   
   240. RY*(  10)Cl  20                  0.00001     0.65618   
   241. RY*(  11)Cl  20                  0.00000     4.89973   
   242. RY*(  12)Cl  20                  0.00000    23.23004   
   243. RY*(  13)Cl  20                  0.00000   207.28798   
   244. RY*(  14)Cl  20                  0.00000     0.61565   
   245. RY*(  15)Cl  20                  0.00000     5.06225   
   246. RY*(  16)Cl  20                  0.00000    23.23485   
   247. RY*(  17)Cl  20                  0.00001     0.66452   
   248. RY*(  18)Cl  20                  0.00000     0.95008   
   249. RY*(  19)Cl  20                  0.00001     0.92433   
   250. RY*(  20)Cl  20                  0.00001     1.08134   
   251. RY*(  21)Cl  20                  0.00000     0.98966   
       -------------------------------
              Total Lewis   17.88692  ( 99.9965%)
        Valence non-Lewis    0.00000  (  0.0000%)
        Rydberg non-Lewis    0.00063  (  0.0035%)
       -------------------------------
            Total unit  2   17.88755  (100.0000%)
           Charge unit  2   -0.88755
 1\1\GINC-CX1-9-16-1\SP\RB3LYP\6-311+G(d,p)\C6H11Cl1N2\CJS14\20-Apr-201
 5\0\\# pop(nbo,full) GFInput b3lyp/6-311+g(d,p) geom=checkpoint integr
 al=grid=ultrafine scf=conver=9 empiricaldispersion=gd3bj\\Emim+ (optim
 ised with b3lyp+gd3bj / aug-cc-pvtz) and Cl- in the back position crea
 ted on; Thu Apr 16 19:11:52 BST 2015, from; CJS1_emim-cl_B_init.com cr
 eated on; Sun Apr 19 10:11:24 BST 2015, from; CJS1_emim-cl_B_6-311+g-d
 -p-_gd3bj_opt-modredundant_difrz_err.com created on; Mon Apr 20 15:19:
 43 BST 2015, from; CJS1_emim-cl_B_6-311+g-d-p-_gd3bj_opt-modredundant_
 unfrz.com\\0,1\C,0,-0.0113829866,0.7578307703,-0.1134322391\C,0,-1.208
 2310823,1.376138746,0.0963740994\C,0,-1.6074771549,-0.7801397595,-0.17
 50769045\N,0,-0.2926193994,-0.5867347272,-0.2826436079\H,0,1.034792887
 1,1.0914802697,-0.203867938\H,0,-1.44359872,2.4131295981,0.2607225568\
 H,0,-2.115886279,-1.7248516341,-0.2604228135\N,0,-2.1955880209,0.40286
 64824,0.054680339\C,0,0.7207698774,-1.6468794134,-0.5002264302\C,0,1.3
 576062916,-2.080353207,0.8121843236\H,0,1.4849148358,-1.2061062797,-1.
 1462813868\H,0,0.2080057276,-2.4665327452,-1.0078735531\H,0,2.06684254
 53,-2.885626,0.6105343416\H,0,1.9210447595,-1.2473607832,1.2348841849\
 H,0,0.613193063,-2.4407616122,1.528699949\C,0,-3.6287712734,0.63006105
 22,0.2158227299\H,0,-3.8218330099,1.0878163534,1.1861486062\H,0,-3.991
 4475854,1.2840084174,-0.5776390994\H,0,-4.1499822324,-0.3239541579,0.1
 604150364\Cl,0,3.0724846741,0.6786213066,-0.7427580292\\Version=ES64L-
 G09RevD.01\State=1-A\HF=-805.1052603\RMSD=4.439e-10\Dipole=-6.1749108,
 -1.275953,0.9592782\Quadrupole=-8.029586,7.6948093,0.3347767,-9.678301
 4,4.0861852,2.6774459\PG=C01 [X(C6H11Cl1N2)]\\@


 FROM AN ANONYMOUS WRITER, ON PERSPECTIVE:

 MAN, DESPITE HIS ARTISTIC PRETENSIONS, HIS SOPHISTICATION AND MANY 
 ACCOMPLISHMENTS, OWES THE FACT OF HIS EXISTENCE TO A SIX-INCH LAYER OF 
 TOPSOIL AND THE FACT THAT IT RAINS.
 Job cpu time:       0 days  0 hours  7 minutes 18.4 seconds.
 File lengths (MBytes):  RWF=     29 Int=      0 D2E=      0 Chk=      6 Scr=      1
 Normal termination of Gaussian 09 at Mon Apr 20 15:25:40 2015.
