 Entering Gaussian System, Link 0=g09
 Input=/work/cjs14/CJS1_emim-cl_BE_6-311+g-d-p-_gd3bj_pop-nbo-full-_unfrz.com
 Output=/work/cjs14/CJS1_emim-cl_BE_6-311+g-d-p-_gd3bj_pop-nbo-full-_unfrz.log
 Initial command:
 /apps/gaussian/g09_d01/g09/l1.exe /tmp/pbs.9416796.cx1b/Gau-30263.inp -scrdir=/tmp/pbs.9416796.cx1b/
 Entering Link 1 = /apps/gaussian/g09_d01/g09/l1.exe PID=     30264.
  
 Copyright (c) 1988,1990,1992,1993,1995,1998,2003,2009,2013,
            Gaussian, Inc.  All Rights Reserved.
  
 This is part of the Gaussian(R) 09 program.  It is based on
 the Gaussian(R) 03 system (copyright 2003, Gaussian, Inc.),
 the Gaussian(R) 98 system (copyright 1998, Gaussian, Inc.),
 the Gaussian(R) 94 system (copyright 1995, Gaussian, Inc.),
 the Gaussian 92(TM) system (copyright 1992, Gaussian, Inc.),
 the Gaussian 90(TM) system (copyright 1990, Gaussian, Inc.),
 the Gaussian 88(TM) system (copyright 1988, Gaussian, Inc.),
 the Gaussian 86(TM) system (copyright 1986, Carnegie Mellon
 University), and the Gaussian 82(TM) system (copyright 1983,
 Carnegie Mellon University). Gaussian is a federally registered
 trademark of Gaussian, Inc.
  
 This software contains proprietary and confidential information,
 including trade secrets, belonging to Gaussian, Inc.
  
 This software is provided under written license and may be
 used, copied, transmitted, or stored only in accord with that
 written license.
  
 The following legend is applicable only to US Government
 contracts under FAR:
  
                    RESTRICTED RIGHTS LEGEND
  
 Use, reproduction and disclosure by the US Government is
 subject to restrictions as set forth in subparagraphs (a)
 and (c) of the Commercial Computer Software - Restricted
 Rights clause in FAR 52.227-19.
  
 Gaussian, Inc.
 340 Quinnipiac St., Bldg. 40, Wallingford CT 06492
  
  
 ---------------------------------------------------------------
 Warning -- This program may not be used in any manner that
 competes with the business of Gaussian, Inc. or will provide
 assistance to any competitor of Gaussian, Inc.  The licensee
 of this program is prohibited from giving any competitor of
 Gaussian, Inc. access to this program.  By using this program,
 the user acknowledges that Gaussian, Inc. is engaged in the
 business of creating and licensing software in the field of
 computational chemistry and represents and warrants to the
 licensee that it is not a competitor of Gaussian, Inc. and that
 it will not use this program in any manner prohibited above.
 ---------------------------------------------------------------
  

 Cite this work as:
 Gaussian 09, Revision D.01,
 M. J. Frisch, G. W. Trucks, H. B. Schlegel, G. E. Scuseria, 
 M. A. Robb, J. R. Cheeseman, G. Scalmani, V. Barone, B. Mennucci, 
 G. A. Petersson, H. Nakatsuji, M. Caricato, X. Li, H. P. Hratchian, 
 A. F. Izmaylov, J. Bloino, G. Zheng, J. L. Sonnenberg, M. Hada, 
 M. Ehara, K. Toyota, R. Fukuda, J. Hasegawa, M. Ishida, T. Nakajima, 
 Y. Honda, O. Kitao, H. Nakai, T. Vreven, J. A. Montgomery, Jr., 
 J. E. Peralta, F. Ogliaro, M. Bearpark, J. J. Heyd, E. Brothers, 
 K. N. Kudin, V. N. Staroverov, T. Keith, R. Kobayashi, J. Normand, 
 K. Raghavachari, A. Rendell, J. C. Burant, S. S. Iyengar, J. Tomasi, 
 M. Cossi, N. Rega, J. M. Millam, M. Klene, J. E. Knox, J. B. Cross, 
 V. Bakken, C. Adamo, J. Jaramillo, R. Gomperts, R. E. Stratmann, 
 O. Yazyev, A. J. Austin, R. Cammi, C. Pomelli, J. W. Ochterski, 
 R. L. Martin, K. Morokuma, V. G. Zakrzewski, G. A. Voth, 
 P. Salvador, J. J. Dannenberg, S. Dapprich, A. D. Daniels, 
 O. Farkas, J. B. Foresman, J. V. Ortiz, J. Cioslowski, 
 and D. J. Fox, Gaussian, Inc., Wallingford CT, 2013.
 
 ******************************************
 Gaussian 09:  ES64L-G09RevD.01 24-Apr-2013
                20-Apr-2015 
 ******************************************
 %nprocshared=8
 Will use up to    8 processors via shared memory.
 %mem=15000MB
 %chk=CJS1_emim-cl_BE_6-311+g-d-p-_gd3bj_pop-nbo-full-_unfrz.chk
 ----------------------------------------------------------------------
 # pop(nbo,full) GFInput b3lyp/6-311+g(d,p) geom=checkpoint integral=gr
 id=ultrafine scf=conver=9 empiricaldispersion=gd3bj
 ----------------------------------------------------------------------
 1/29=2,38=1/1;
 2/12=2,40=1/2;
 3/5=4,6=6,7=111,11=2,14=-4,16=1,24=10,25=1,30=1,74=-5,75=-5,124=41/1,2,3;
 4//1;
 5/5=2,6=9,38=5/2;
 6/7=3,28=1,40=1/1,7;
 99/5=1,9=1/99;
 ----------------------------------------------------------------------
 Emim+ (optimised with b3lyp+gd3bj / aug-cc-pvtz) and Cl- in the back-e
 thyl position created on; Thu Apr 16 19:11:51 BST 2015, from; CJS1_emi
 m-cl_BE_init.com created on; Fri Apr 17 20:54:15 BST 2015, from; CJS1_
 emim-cl_BE_6-311+g-d-p-_gd3bj_opt-modredundant_difrz.com created on; M
 on Apr 20 15:19:44 BST 2015, from; CJS1_emim-cl_BE_6-311+g-d-p-_gd3bj_
 opt-modredundant_unfrz.com
 ----------------------------------------------------------------------
 Structure from the checkpoint file:  "CJS1_emim-cl_BE_6-311+g-d-p-_gd3bj_pop-nbo-full-_unfrz.chk"
 Charge =  0 Multiplicity = 1
 Redundant internal coordinates found in file.
 C,0,-0.2705640024,1.6928588793,-0.1083449253
 C,0,-1.6112168417,1.6223541194,0.129226809
 C,0,-0.8672736725,-0.442837869,-0.1246420064
 N,0,0.1654222864,0.3887099753,-0.2659138963
 H,0,0.4612155606,2.50882011,-0.225310072
 H,0,-2.3366379928,2.399455158,0.2954581492
 H,0,-0.8278770326,-1.5161274789,-0.1935124044
 N,0,-1.9692745676,0.2823979701,0.1156915103
 C,0,1.5722308867,-0.0144178738,-0.5034812028
 C,0,2.3661136557,-0.0411846557,0.7946249538
 H,0,1.9944327125,0.7406015414,-1.1720311992
 H,0,1.5368022849,-0.9900275588,-0.992779523
 H,0,3.3823069239,-0.3774616447,0.5792105942
 H,0,2.4356815276,0.9698142161,1.1986253168
 H,0,1.9221715036,-0.7177081473,1.5312738487
 C,0,-3.3165006253,-0.2455856113,0.3104538031
 H,0,-3.7002272447,0.0748562034,1.2791325471
 H,0,-3.9734708814,0.1136679261,-0.4821099818
 H,0,-3.2813915134,-1.3331586432,0.2818305365
 Cl,0,2.4145665625,3.1800963534,-0.8027039176
 Recover connectivity data from disk.
                          Input orientation:                          
 ---------------------------------------------------------------------
 Center     Atomic      Atomic             Coordinates (Angstroms)
 Number     Number       Type             X           Y           Z
 ---------------------------------------------------------------------
      1          6           0       -0.270564    1.692859   -0.108345
      2          6           0       -1.611217    1.622354    0.129227
      3          6           0       -0.867274   -0.442838   -0.124642
      4          7           0        0.165422    0.388710   -0.265914
      5          1           0        0.461216    2.508820   -0.225310
      6          1           0       -2.336638    2.399455    0.295458
      7          1           0       -0.827877   -1.516127   -0.193512
      8          7           0       -1.969275    0.282398    0.115692
      9          6           0        1.572231   -0.014418   -0.503481
     10          6           0        2.366114   -0.041185    0.794625
     11          1           0        1.994433    0.740602   -1.172031
     12          1           0        1.536802   -0.990028   -0.992780
     13          1           0        3.382307   -0.377462    0.579211
     14          1           0        2.435682    0.969814    1.198625
     15          1           0        1.922172   -0.717708    1.531274
     16          6           0       -3.316501   -0.245586    0.310454
     17          1           0       -3.700227    0.074856    1.279133
     18          1           0       -3.973471    0.113668   -0.482110
     19          1           0       -3.281392   -1.333159    0.281831
     20         17           0        2.414567    3.180096   -0.802704
 ---------------------------------------------------------------------
                    Distance matrix (angstroms):
                    1          2          3          4          5
     1  C    0.000000
     2  C    1.363364   0.000000
     3  C    2.217550   2.209733   0.000000
     4  N    1.384094   2.198741   1.333376   0.000000
     5  H    1.102259   2.281774   3.238410   2.141030   0.000000
     6  H    2.220585   1.075990   3.227095   3.258610   2.848007
     7  H    3.258135   3.250823   1.076218   2.149486   4.226461
     8  N    2.219281   1.387037   1.340945   2.171142   3.313687
     9  C    2.542994   3.635063   2.505643   1.482586   2.771004
    10  C    3.282428   4.362256   3.385435   2.480442   3.342369
    11  H    2.677393   3.933379   3.269085   2.071269   2.524605
    12  H    3.353607   4.241870   2.613936   2.076038   3.740031
    13  H    4.254695   5.397873   4.307971   3.413151   4.184573
    14  H    3.091073   4.236367   3.828333   2.763446   2.880043
    15  H    3.647913   4.463906   3.255551   2.745945   3.953538
    16  C    3.634651   2.535751   2.495382   3.585850   4.705840
    17  H    4.038021   2.842710   3.203782   4.174796   5.050261
    18  H    4.042903   2.868817   3.175837   4.153652   5.046696
    19  H    4.286502   3.398209   2.604968   3.891707   5.387495
    20  Cl   3.147052   4.416105   4.935169   3.624725   2.144662
                    6          7          8          9         10
     6  H    0.000000
     7  H    4.224599   0.000000
     8  N    2.156201   2.152461   0.000000
     9  C    4.663083   2.848110   3.607456   0.000000
    10  C    5.321820   3.654237   4.400142   1.521856   0.000000
    11  H    4.864514   3.743762   4.192750   1.093283   2.148737
    12  H    5.305817   2.550944   3.891060   1.092008   2.186979
    13  H    6.363813   4.429369   5.411995   2.140186   1.091849
    14  H    5.063064   4.332294   4.587911   2.147423   1.090951
    15  H    5.420462   3.342922   4.259981   2.181124   1.094267
    16  C    2.820744   2.839279   1.460040   4.961414   5.706865
    17  H    2.868929   3.598654   2.095916   5.566372   6.086765
    18  H    2.916960   3.554474   2.098247   5.547222   6.468722
    19  H    3.850344   2.505826   2.087888   5.090525   5.816053
    20  Cl   4.938553   5.739257   5.334620   3.317225   3.595895
                   11         12         13         14         15
    11  H    0.000000
    12  H    1.799065   0.000000
    13  H    2.498621   2.500455   0.000000
    14  H    2.422241   3.074283   1.759240   0.000000
    15  H    3.072417   2.567784   1.776003   1.795015   0.000000
    16  C    5.601459   5.080075   6.705494   5.945893   5.399721
    17  H    6.235429   5.807068   7.131393   6.201355   5.683582
    18  H    6.040274   5.642875   7.448159   6.680950   6.285181
    19  H    5.852223   4.995734   6.738447   6.231302   5.386739
    20  Cl   2.502808   4.265739   3.937312   2.981797   4.569769
                   16         17         18         19         20
    16  C    0.000000
    17  H    1.090077   0.000000
    18  H    1.090335   1.782735   0.000000
    19  H    1.088516   1.775539   1.776481   0.000000
    20  Cl   6.769014   7.167096   7.093151   7.347763   0.000000
 Stoichiometry    C6H11ClN2
 Framework group  C1[X(C6H11ClN2)]
 Deg. of freedom    54
 Full point group                 C1      NOp   1
 Largest Abelian subgroup         C1      NOp   1
 Largest concise Abelian subgroup C1      NOp   1
                         Standard orientation:                         
 ---------------------------------------------------------------------
 Center     Atomic      Atomic             Coordinates (Angstroms)
 Number     Number       Type             X           Y           Z
 ---------------------------------------------------------------------
      1          6           0        0.100258   -0.820984    0.159748
      2          6           0        1.366818   -1.294964    0.332758
      3          6           0        1.524219    0.800953   -0.349353
      4          7           0        0.230451    0.488442   -0.269402
      5          1           0       -0.912930   -1.245511    0.250306
      6          1           0        1.717685   -2.263323    0.644088
      7          1           0        1.926658    1.751632   -0.653489
      8          7           0        2.245107   -0.270895    0.010639
      9          6           0       -0.898670    1.408739   -0.545444
     10          6           0       -1.441304    2.018445    0.739022
     11          1           0       -1.676205    0.800928   -1.015842
     12          1           0       -0.521729    2.162388   -1.240002
     13          1           0       -2.243605    2.714788    0.486924
     14          1           0       -1.874326    1.232446    1.359403
     15          1           0       -0.668374    2.560334    1.292516
     16          6           0        3.702578   -0.352286    0.040156
     17          1           0        4.035371   -0.620176    1.043028
     18          1           0        4.046412   -1.101529   -0.673457
     19          1           0        4.119826    0.616645   -0.228067
     20         17           0       -3.023593   -1.099463   -0.100905
 ---------------------------------------------------------------------
 Rotational constants (GHZ):      2.3851618      0.6888202      0.5624112
 Standard basis: 6-311+G(d,p) (5D, 7F)
 AO basis set in the form of general basis input (Overlap normalization):
      1 0
 S   6 1.00       0.000000000000
      0.4563240000D+04  0.1966650249D-02
      0.6820240000D+03  0.1523060193D-01
      0.1549730000D+03  0.7612690966D-01
      0.4445530000D+02  0.2608010331D+00
      0.1302900000D+02  0.6164620782D+00
      0.1827730000D+01  0.2210060280D+00
 SP   3 1.00       0.000000000000
      0.2096420000D+02  0.1146600807D+00  0.4024869267D-01
      0.4803310000D+01  0.9199996477D+00  0.2375939567D+00
      0.1459330000D+01 -0.3030682134D-02  0.8158538515D+00
 SP   1 1.00       0.000000000000
      0.4834560000D+00  0.1000000000D+01  0.1000000000D+01
 SP   1 1.00       0.000000000000
      0.1455850000D+00  0.1000000000D+01  0.1000000000D+01
 SP   1 1.00       0.000000000000
      0.4380000000D-01  0.1000000000D+01  0.1000000000D+01
 D   1 1.00       0.000000000000
      0.6260000000D+00  0.1000000000D+01
 ****
      2 0
 S   6 1.00       0.000000000000
      0.4563240000D+04  0.1966650249D-02
      0.6820240000D+03  0.1523060193D-01
      0.1549730000D+03  0.7612690966D-01
      0.4445530000D+02  0.2608010331D+00
      0.1302900000D+02  0.6164620782D+00
      0.1827730000D+01  0.2210060280D+00
 SP   3 1.00       0.000000000000
      0.2096420000D+02  0.1146600807D+00  0.4024869267D-01
      0.4803310000D+01  0.9199996477D+00  0.2375939567D+00
      0.1459330000D+01 -0.3030682134D-02  0.8158538515D+00
 SP   1 1.00       0.000000000000
      0.4834560000D+00  0.1000000000D+01  0.1000000000D+01
 SP   1 1.00       0.000000000000
      0.1455850000D+00  0.1000000000D+01  0.1000000000D+01
 SP   1 1.00       0.000000000000
      0.4380000000D-01  0.1000000000D+01  0.1000000000D+01
 D   1 1.00       0.000000000000
      0.6260000000D+00  0.1000000000D+01
 ****
      3 0
 S   6 1.00       0.000000000000
      0.4563240000D+04  0.1966650249D-02
      0.6820240000D+03  0.1523060193D-01
      0.1549730000D+03  0.7612690966D-01
      0.4445530000D+02  0.2608010331D+00
      0.1302900000D+02  0.6164620782D+00
      0.1827730000D+01  0.2210060280D+00
 SP   3 1.00       0.000000000000
      0.2096420000D+02  0.1146600807D+00  0.4024869267D-01
      0.4803310000D+01  0.9199996477D+00  0.2375939567D+00
      0.1459330000D+01 -0.3030682134D-02  0.8158538515D+00
 SP   1 1.00       0.000000000000
      0.4834560000D+00  0.1000000000D+01  0.1000000000D+01
 SP   1 1.00       0.000000000000
      0.1455850000D+00  0.1000000000D+01  0.1000000000D+01
 SP   1 1.00       0.000000000000
      0.4380000000D-01  0.1000000000D+01  0.1000000000D+01
 D   1 1.00       0.000000000000
      0.6260000000D+00  0.1000000000D+01
 ****
      4 0
 S   6 1.00       0.000000000000
      0.6293480000D+04  0.1969788147D-02
      0.9490440000D+03  0.1496128592D-01
      0.2187760000D+03  0.7350053084D-01
      0.6369160000D+02  0.2489367658D+00
      0.1882820000D+02  0.6024594331D+00
      0.2720230000D+01  0.2562017589D+00
 SP   3 1.00       0.000000000000
      0.3063310000D+02  0.1119060795D+00  0.3831191864D-01
      0.7026140000D+01  0.9216666549D+00  0.2374031155D+00
      0.2112050000D+01 -0.2569191826D-02  0.8175923978D+00
 SP   1 1.00       0.000000000000
      0.6840090000D+00  0.1000000000D+01  0.1000000000D+01
 SP   1 1.00       0.000000000000
      0.2008780000D+00  0.1000000000D+01  0.1000000000D+01
 SP   1 1.00       0.000000000000
      0.6390000000D-01  0.1000000000D+01  0.1000000000D+01
 D   1 1.00       0.000000000000
      0.9130000000D+00  0.1000000000D+01
 ****
      5 0
 S   3 1.00       0.000000000000
      0.3386500000D+02  0.2549381454D-01
      0.5094790000D+01  0.1903731086D+00
      0.1158790000D+01  0.8521614860D+00
 S   1 1.00       0.000000000000
      0.3258400000D+00  0.1000000000D+01
 S   1 1.00       0.000000000000
      0.1027410000D+00  0.1000000000D+01
 P   1 1.00       0.000000000000
      0.7500000000D+00  0.1000000000D+01
 ****
      6 0
 S   3 1.00       0.000000000000
      0.3386500000D+02  0.2549381454D-01
      0.5094790000D+01  0.1903731086D+00
      0.1158790000D+01  0.8521614860D+00
 S   1 1.00       0.000000000000
      0.3258400000D+00  0.1000000000D+01
 S   1 1.00       0.000000000000
      0.1027410000D+00  0.1000000000D+01
 P   1 1.00       0.000000000000
      0.7500000000D+00  0.1000000000D+01
 ****
      7 0
 S   3 1.00       0.000000000000
      0.3386500000D+02  0.2549381454D-01
      0.5094790000D+01  0.1903731086D+00
      0.1158790000D+01  0.8521614860D+00
 S   1 1.00       0.000000000000
      0.3258400000D+00  0.1000000000D+01
 S   1 1.00       0.000000000000
      0.1027410000D+00  0.1000000000D+01
 P   1 1.00       0.000000000000
      0.7500000000D+00  0.1000000000D+01
 ****
      8 0
 S   6 1.00       0.000000000000
      0.6293480000D+04  0.1969788147D-02
      0.9490440000D+03  0.1496128592D-01
      0.2187760000D+03  0.7350053084D-01
      0.6369160000D+02  0.2489367658D+00
      0.1882820000D+02  0.6024594331D+00
      0.2720230000D+01  0.2562017589D+00
 SP   3 1.00       0.000000000000
      0.3063310000D+02  0.1119060795D+00  0.3831191864D-01
      0.7026140000D+01  0.9216666549D+00  0.2374031155D+00
      0.2112050000D+01 -0.2569191826D-02  0.8175923978D+00
 SP   1 1.00       0.000000000000
      0.6840090000D+00  0.1000000000D+01  0.1000000000D+01
 SP   1 1.00       0.000000000000
      0.2008780000D+00  0.1000000000D+01  0.1000000000D+01
 SP   1 1.00       0.000000000000
      0.6390000000D-01  0.1000000000D+01  0.1000000000D+01
 D   1 1.00       0.000000000000
      0.9130000000D+00  0.1000000000D+01
 ****
      9 0
 S   6 1.00       0.000000000000
      0.4563240000D+04  0.1966650249D-02
      0.6820240000D+03  0.1523060193D-01
      0.1549730000D+03  0.7612690966D-01
      0.4445530000D+02  0.2608010331D+00
      0.1302900000D+02  0.6164620782D+00
      0.1827730000D+01  0.2210060280D+00
 SP   3 1.00       0.000000000000
      0.2096420000D+02  0.1146600807D+00  0.4024869267D-01
      0.4803310000D+01  0.9199996477D+00  0.2375939567D+00
      0.1459330000D+01 -0.3030682134D-02  0.8158538515D+00
 SP   1 1.00       0.000000000000
      0.4834560000D+00  0.1000000000D+01  0.1000000000D+01
 SP   1 1.00       0.000000000000
      0.1455850000D+00  0.1000000000D+01  0.1000000000D+01
 SP   1 1.00       0.000000000000
      0.4380000000D-01  0.1000000000D+01  0.1000000000D+01
 D   1 1.00       0.000000000000
      0.6260000000D+00  0.1000000000D+01
 ****
     10 0
 S   6 1.00       0.000000000000
      0.4563240000D+04  0.1966650249D-02
      0.6820240000D+03  0.1523060193D-01
      0.1549730000D+03  0.7612690966D-01
      0.4445530000D+02  0.2608010331D+00
      0.1302900000D+02  0.6164620782D+00
      0.1827730000D+01  0.2210060280D+00
 SP   3 1.00       0.000000000000
      0.2096420000D+02  0.1146600807D+00  0.4024869267D-01
      0.4803310000D+01  0.9199996477D+00  0.2375939567D+00
      0.1459330000D+01 -0.3030682134D-02  0.8158538515D+00
 SP   1 1.00       0.000000000000
      0.4834560000D+00  0.1000000000D+01  0.1000000000D+01
 SP   1 1.00       0.000000000000
      0.1455850000D+00  0.1000000000D+01  0.1000000000D+01
 SP   1 1.00       0.000000000000
      0.4380000000D-01  0.1000000000D+01  0.1000000000D+01
 D   1 1.00       0.000000000000
      0.6260000000D+00  0.1000000000D+01
 ****
     11 0
 S   3 1.00       0.000000000000
      0.3386500000D+02  0.2549381454D-01
      0.5094790000D+01  0.1903731086D+00
      0.1158790000D+01  0.8521614860D+00
 S   1 1.00       0.000000000000
      0.3258400000D+00  0.1000000000D+01
 S   1 1.00       0.000000000000
      0.1027410000D+00  0.1000000000D+01
 P   1 1.00       0.000000000000
      0.7500000000D+00  0.1000000000D+01
 ****
     12 0
 S   3 1.00       0.000000000000
      0.3386500000D+02  0.2549381454D-01
      0.5094790000D+01  0.1903731086D+00
      0.1158790000D+01  0.8521614860D+00
 S   1 1.00       0.000000000000
      0.3258400000D+00  0.1000000000D+01
 S   1 1.00       0.000000000000
      0.1027410000D+00  0.1000000000D+01
 P   1 1.00       0.000000000000
      0.7500000000D+00  0.1000000000D+01
 ****
     13 0
 S   3 1.00       0.000000000000
      0.3386500000D+02  0.2549381454D-01
      0.5094790000D+01  0.1903731086D+00
      0.1158790000D+01  0.8521614860D+00
 S   1 1.00       0.000000000000
      0.3258400000D+00  0.1000000000D+01
 S   1 1.00       0.000000000000
      0.1027410000D+00  0.1000000000D+01
 P   1 1.00       0.000000000000
      0.7500000000D+00  0.1000000000D+01
 ****
     14 0
 S   3 1.00       0.000000000000
      0.3386500000D+02  0.2549381454D-01
      0.5094790000D+01  0.1903731086D+00
      0.1158790000D+01  0.8521614860D+00
 S   1 1.00       0.000000000000
      0.3258400000D+00  0.1000000000D+01
 S   1 1.00       0.000000000000
      0.1027410000D+00  0.1000000000D+01
 P   1 1.00       0.000000000000
      0.7500000000D+00  0.1000000000D+01
 ****
     15 0
 S   3 1.00       0.000000000000
      0.3386500000D+02  0.2549381454D-01
      0.5094790000D+01  0.1903731086D+00
      0.1158790000D+01  0.8521614860D+00
 S   1 1.00       0.000000000000
      0.3258400000D+00  0.1000000000D+01
 S   1 1.00       0.000000000000
      0.1027410000D+00  0.1000000000D+01
 P   1 1.00       0.000000000000
      0.7500000000D+00  0.1000000000D+01
 ****
     16 0
 S   6 1.00       0.000000000000
      0.4563240000D+04  0.1966650249D-02
      0.6820240000D+03  0.1523060193D-01
      0.1549730000D+03  0.7612690966D-01
      0.4445530000D+02  0.2608010331D+00
      0.1302900000D+02  0.6164620782D+00
      0.1827730000D+01  0.2210060280D+00
 SP   3 1.00       0.000000000000
      0.2096420000D+02  0.1146600807D+00  0.4024869267D-01
      0.4803310000D+01  0.9199996477D+00  0.2375939567D+00
      0.1459330000D+01 -0.3030682134D-02  0.8158538515D+00
 SP   1 1.00       0.000000000000
      0.4834560000D+00  0.1000000000D+01  0.1000000000D+01
 SP   1 1.00       0.000000000000
      0.1455850000D+00  0.1000000000D+01  0.1000000000D+01
 SP   1 1.00       0.000000000000
      0.4380000000D-01  0.1000000000D+01  0.1000000000D+01
 D   1 1.00       0.000000000000
      0.6260000000D+00  0.1000000000D+01
 ****
     17 0
 S   3 1.00       0.000000000000
      0.3386500000D+02  0.2549381454D-01
      0.5094790000D+01  0.1903731086D+00
      0.1158790000D+01  0.8521614860D+00
 S   1 1.00       0.000000000000
      0.3258400000D+00  0.1000000000D+01
 S   1 1.00       0.000000000000
      0.1027410000D+00  0.1000000000D+01
 P   1 1.00       0.000000000000
      0.7500000000D+00  0.1000000000D+01
 ****
     18 0
 S   3 1.00       0.000000000000
      0.3386500000D+02  0.2549381454D-01
      0.5094790000D+01  0.1903731086D+00
      0.1158790000D+01  0.8521614860D+00
 S   1 1.00       0.000000000000
      0.3258400000D+00  0.1000000000D+01
 S   1 1.00       0.000000000000
      0.1027410000D+00  0.1000000000D+01
 P   1 1.00       0.000000000000
      0.7500000000D+00  0.1000000000D+01
 ****
     19 0
 S   3 1.00       0.000000000000
      0.3386500000D+02  0.2549381454D-01
      0.5094790000D+01  0.1903731086D+00
      0.1158790000D+01  0.8521614860D+00
 S   1 1.00       0.000000000000
      0.3258400000D+00  0.1000000000D+01
 S   1 1.00       0.000000000000
      0.1027410000D+00  0.1000000000D+01
 P   1 1.00       0.000000000000
      0.7500000000D+00  0.1000000000D+01
 ****
     20 0
 S   6 1.00       0.000000000000
      0.1058190000D+06  0.7380002465D-03
      0.1587200000D+05  0.5718001910D-02
      0.3619650000D+04  0.2949500985D-01
      0.1030800000D+04  0.1172860392D+00
      0.3399080000D+03  0.3629491212D+00
      0.1245380000D+03  0.5841491951D+00
 S   3 1.00       0.000000000000
      0.1245380000D+03  0.1341769734D+00
      0.4951350000D+02  0.6242498762D+00
      0.2080560000D+02  0.2917559421D+00
 S   1 1.00       0.000000000000
      0.6583460000D+01  0.1000000000D+01
 S   1 1.00       0.000000000000
      0.2564680000D+01  0.1000000000D+01
 S   1 1.00       0.000000000000
      0.5597630000D+00  0.1000000000D+01
 S   1 1.00       0.000000000000
      0.1832730000D+00  0.1000000000D+01
 SP   1 1.00       0.000000000000
      0.4830000000D-01  0.1000000000D+01  0.1000000000D+01
 P   5 1.00       0.000000000000
      0.5897760000D+03  0.3665569355D-02
      0.1398490000D+03  0.2836791942D-01
      0.4514130000D+02  0.1247566028D+00
      0.1687330000D+02  0.3396546305D+00
      0.2771520000D+01  0.7475859630D+00
 P   2 1.00       0.000000000000
      0.6741100000D+01 -0.1572243813D+01
      0.2771520000D+01  0.9923888817D+00
 P   1 1.00       0.000000000000
      0.1023870000D+01  0.1000000000D+01
 P   1 1.00       0.000000000000
      0.3813680000D+00  0.1000000000D+01
 P   1 1.00       0.000000000000
      0.1094370000D+00  0.1000000000D+01
 D   1 1.00       0.000000000000
      0.7500000000D+00  0.1000000000D+01
 ****

 There are   281 symmetry adapted cartesian basis functions of A   symmetry.
 There are   272 symmetry adapted basis functions of A   symmetry.
   272 basis functions,   429 primitive gaussians,   281 cartesian basis functions
    39 alpha electrons       39 beta electrons
       nuclear repulsion energy       513.8370673905 Hartrees.
 NAtoms=   20 NActive=   20 NUniq=   20 SFac= 1.00D+00 NAtFMM=   60 NAOKFM=F Big=F
 Integral buffers will be    131072 words long.
 Raffenetti 2 integral format.
 Two-electron integral symmetry is turned on.
 Nuclear repulsion after empirical dispersion term =      513.8046265823 Hartrees.
 One-electron integrals computed using PRISM.
 NBasis=   272 RedAO= T EigKep=  7.79D-06  NBF=   272
 NBsUse=   272 1.00D-06 EigRej= -1.00D+00 NBFU=   272
 ExpMin= 4.38D-02 ExpMax= 1.06D+05 ExpMxC= 3.62D+03 IAcc=3 IRadAn=         5 AccDes= 0.00D+00
 Harris functional with IExCor=  402 and IRadAn=       5 diagonalized for initial guess.
 HarFok:  IExCor=  402 AccDes= 0.00D+00 IRadAn=         5 IDoV= 1 UseB2=F ITyADJ=14
 ICtDFT=  3500011 ScaDFX=  1.000000  1.000000  1.000000  1.000000
 FoFCou: FMM=F IPFlag=           0 FMFlag=      100000 FMFlg1=           0
         NFxFlg=           0 DoJE=T BraDBF=F KetDBF=T FulRan=T
         wScrn=  0.000000 ICntrl=     500 IOpCl=  0 I1Cent=   200000004 NGrid=           0
         NMat0=    1 NMatS0=      1 NMatT0=    0 NMatD0=    1 NMtDS0=    0 NMtDT0=    0
 Petite list used in FoFCou.
 Keep R1 ints in memory in canonical form, NReq=700735283.
 Requested convergence on RMS density matrix=1.00D-09 within 128 cycles.
 Requested convergence on MAX density matrix=1.00D-07.
 Requested convergence on             energy=1.00D-07.
 No special actions if energy rises.
 SCF Done:  E(RB3LYP) =  -805.105259969     A.U. after   16 cycles
            NFock= 16  Conv=0.15D-09     -V/T= 2.0033

 **********************************************************************

            Population analysis using the SCF density.

 **********************************************************************

 Orbital symmetries:
       Occupied  (A) (A) (A) (A) (A) (A) (A) (A) (A) (A) (A) (A)
                 (A) (A) (A) (A) (A) (A) (A) (A) (A) (A) (A) (A)
                 (A) (A) (A) (A) (A) (A) (A) (A) (A) (A) (A) (A)
                 (A) (A) (A)
       Virtual   (A) (A) (A) (A) (A) (A) (A) (A) (A) (A) (A) (A)
                 (A) (A) (A) (A) (A) (A) (A) (A) (A) (A) (A) (A)
                 (A) (A) (A) (A) (A) (A) (A) (A) (A) (A) (A) (A)
                 (A) (A) (A) (A) (A) (A) (A) (A) (A) (A) (A) (A)
                 (A) (A) (A) (A) (A) (A) (A) (A) (A) (A) (A) (A)
                 (A) (A) (A) (A) (A) (A) (A) (A) (A) (A) (A) (A)
                 (A) (A) (A) (A) (A) (A) (A) (A) (A) (A) (A) (A)
                 (A) (A) (A) (A) (A) (A) (A) (A) (A) (A) (A) (A)
                 (A) (A) (A) (A) (A) (A) (A) (A) (A) (A) (A) (A)
                 (A) (A) (A) (A) (A) (A) (A) (A) (A) (A) (A) (A)
                 (A) (A) (A) (A) (A) (A) (A) (A) (A) (A) (A) (A)
                 (A) (A) (A) (A) (A) (A) (A) (A) (A) (A) (A) (A)
                 (A) (A) (A) (A) (A) (A) (A) (A) (A) (A) (A) (A)
                 (A) (A) (A) (A) (A) (A) (A) (A) (A) (A) (A) (A)
                 (A) (A) (A) (A) (A) (A) (A) (A) (A) (A) (A) (A)
                 (A) (A) (A) (A) (A) (A) (A) (A) (A) (A) (A) (A)
                 (A) (A) (A) (A) (A) (A) (A) (A) (A) (A) (A) (A)
                 (A) (A) (A) (A) (A) (A) (A) (A) (A) (A) (A) (A)
                 (A) (A) (A) (A) (A) (A) (A) (A) (A) (A) (A) (A)
                 (A) (A) (A) (A) (A)
 The electronic state is 1-A.
 Alpha  occ. eigenvalues -- -101.37879 -14.45189 -14.43454 -10.31070 -10.27901
 Alpha  occ. eigenvalues --  -10.25622 -10.23894 -10.23164 -10.17218  -9.29265
 Alpha  occ. eigenvalues --   -7.05108  -7.05086  -7.05062  -1.11187  -0.99506
 Alpha  occ. eigenvalues --   -0.84162  -0.81142  -0.77017  -0.68960  -0.67059
 Alpha  occ. eigenvalues --   -0.64665  -0.63548  -0.59167  -0.54790  -0.52317
 Alpha  occ. eigenvalues --   -0.52104  -0.49727  -0.48492  -0.47926  -0.45783
 Alpha  occ. eigenvalues --   -0.45463  -0.41837  -0.39109  -0.37203  -0.34070
 Alpha  occ. eigenvalues --   -0.30154  -0.18448  -0.18236  -0.18067
 Alpha virt. eigenvalues --   -0.06832  -0.03915  -0.02032  -0.01598  -0.00207
 Alpha virt. eigenvalues --    0.00724   0.01168   0.01355   0.02804   0.03711
 Alpha virt. eigenvalues --    0.04477   0.05791   0.06319   0.06623   0.07268
 Alpha virt. eigenvalues --    0.08410   0.09111   0.09410   0.09956   0.10402
 Alpha virt. eigenvalues --    0.11390   0.12046   0.12619   0.13376   0.13933
 Alpha virt. eigenvalues --    0.14291   0.14845   0.15282   0.15655   0.16337
 Alpha virt. eigenvalues --    0.16700   0.17039   0.17708   0.17944   0.18663
 Alpha virt. eigenvalues --    0.19040   0.19471   0.20047   0.20808   0.21965
 Alpha virt. eigenvalues --    0.22780   0.23484   0.23927   0.24121   0.24349
 Alpha virt. eigenvalues --    0.25684   0.25907   0.27663   0.28118   0.28874
 Alpha virt. eigenvalues --    0.29505   0.30774   0.35817   0.36535   0.37073
 Alpha virt. eigenvalues --    0.38236   0.38938   0.39749   0.42090   0.42798
 Alpha virt. eigenvalues --    0.44781   0.47238   0.48140   0.49267   0.51975
 Alpha virt. eigenvalues --    0.52874   0.53978   0.54609   0.55226   0.55622
 Alpha virt. eigenvalues --    0.57693   0.57802   0.58253   0.59280   0.61693
 Alpha virt. eigenvalues --    0.62422   0.63119   0.63300   0.65552   0.65890
 Alpha virt. eigenvalues --    0.67046   0.67460   0.68004   0.70128   0.71319
 Alpha virt. eigenvalues --    0.72499   0.74462   0.76301   0.77621   0.79023
 Alpha virt. eigenvalues --    0.81701   0.84370   0.86250   0.89777   0.90240
 Alpha virt. eigenvalues --    0.93130   0.93954   0.94692   0.98936   0.99810
 Alpha virt. eigenvalues --    1.01561   1.02622   1.03336   1.04305   1.05279
 Alpha virt. eigenvalues --    1.06558   1.08607   1.09774   1.11494   1.13499
 Alpha virt. eigenvalues --    1.17722   1.22892   1.26325   1.26831   1.29199
 Alpha virt. eigenvalues --    1.32166   1.35398   1.36301   1.38395   1.41257
 Alpha virt. eigenvalues --    1.44636   1.46887   1.47819   1.48694   1.51055
 Alpha virt. eigenvalues --    1.53924   1.54965   1.55883   1.57273   1.57382
 Alpha virt. eigenvalues --    1.58717   1.59408   1.59972   1.61979   1.63759
 Alpha virt. eigenvalues --    1.66962   1.69092   1.69786   1.73712   1.74714
 Alpha virt. eigenvalues --    1.76053   1.76900   1.77825   1.78424   1.82521
 Alpha virt. eigenvalues --    1.84187   1.90101   1.93214   1.96808   1.99809
 Alpha virt. eigenvalues --    2.01003   2.05184   2.06687   2.08758   2.10531
 Alpha virt. eigenvalues --    2.13666   2.16140   2.18999   2.23418   2.25326
 Alpha virt. eigenvalues --    2.29114   2.30458   2.34201   2.36676   2.40154
 Alpha virt. eigenvalues --    2.40519   2.40893   2.43929   2.44848   2.45670
 Alpha virt. eigenvalues --    2.46799   2.48094   2.48730   2.50369   2.51797
 Alpha virt. eigenvalues --    2.54150   2.56424   2.57434   2.58807   2.58978
 Alpha virt. eigenvalues --    2.60128   2.62824   2.65239   2.65385   2.69324
 Alpha virt. eigenvalues --    2.71981   2.73472   2.76018   2.77124   2.81486
 Alpha virt. eigenvalues --    2.83639   2.85713   2.88105   2.91820   2.92671
 Alpha virt. eigenvalues --    2.95165   2.96092   3.07924   3.18803   3.26466
 Alpha virt. eigenvalues --    3.36535   3.52793   3.55217   3.60343   3.64333
 Alpha virt. eigenvalues --    3.67696   3.70111   3.77538   3.78290   3.82656
 Alpha virt. eigenvalues --    3.84597   3.86153   3.87152   3.87966   4.07026
 Alpha virt. eigenvalues --    4.21217   4.68291   4.88699   4.92130   5.21965
 Alpha virt. eigenvalues --    9.84945  23.70628  23.83995  23.85167  23.86865
 Alpha virt. eigenvalues --   23.96911  24.14731  25.98261  26.04401  26.16981
 Alpha virt. eigenvalues --   35.41170  35.56586 215.83101
     Molecular Orbital Coefficients:
                           1         2         3         4         5
                           O         O         O         O         O
     Eigenvalues --  -101.37879 -14.45189 -14.43454 -10.31070 -10.27901
   1 1   C  1S          0.00000  -0.00001   0.00001  -0.00002  -0.00002
   2        2S          0.00000   0.00005   0.00002  -0.00002   0.00001
   3        2PX         0.00000   0.00004   0.00005  -0.00008   0.00001
   4        2PY         0.00000  -0.00007   0.00043  -0.00003   0.00000
   5        2PZ         0.00000   0.00002  -0.00014   0.00002   0.00000
   6        3S          0.00002  -0.00040   0.00039  -0.00002  -0.00015
   7        3PX        -0.00003  -0.00079  -0.00009   0.00030  -0.00009
   8        3PY         0.00000   0.00030  -0.00114   0.00018   0.00001
   9        3PZ         0.00001  -0.00010   0.00035  -0.00008   0.00000
  10        4S          0.00020   0.00012   0.00320  -0.00142   0.00279
  11        4PX         0.00050  -0.00188   0.00197   0.00094   0.00201
  12        4PY         0.00023  -0.00116   0.00280   0.00017   0.00061
  13        4PZ        -0.00008   0.00029  -0.00078   0.00004  -0.00020
  14        5S          0.00385   0.03490  -0.02323  -0.03546   0.02490
  15        5PX         0.00210   0.00943  -0.00442  -0.01578   0.01062
  16        5PY         0.00041   0.00110  -0.00247   0.00381   0.00100
  17        5PZ         0.00001  -0.00022   0.00040  -0.00233   0.00005
  18        6D 0        0.00000  -0.00006  -0.00001  -0.00009   0.00002
  19        6D+1        0.00000  -0.00013   0.00013  -0.00008   0.00001
  20        6D-1       -0.00001  -0.00005   0.00034  -0.00004   0.00000
  21        6D+2       -0.00001  -0.00006   0.00092   0.00003  -0.00003
  22        6D-2        0.00000   0.00044  -0.00031   0.00025  -0.00002
  23 2   C  1S          0.00000   0.00001  -0.00001  -0.00004  -0.00008
  24        2S          0.00000   0.00002   0.00005  -0.00003  -0.00006
  25        2PX         0.00000   0.00029  -0.00008   0.00003   0.00003
  26        2PY         0.00000   0.00032  -0.00003  -0.00009   0.00006
  27        2PZ         0.00000  -0.00010   0.00001   0.00003  -0.00002
  28        3S          0.00001   0.00039  -0.00036  -0.00015  -0.00008
  29        3PX         0.00001  -0.00081   0.00080  -0.00004  -0.00022
  30        3PY         0.00000  -0.00080  -0.00031   0.00037  -0.00044
  31        3PZ         0.00000   0.00024   0.00009  -0.00012   0.00014
  32        4S         -0.00040   0.00308   0.00026  -0.00006  -0.00281
  33        4PX         0.00000   0.00036   0.00042  -0.00083   0.00081
  34        4PY        -0.00019   0.00379  -0.00179   0.00126  -0.00201
  35        4PZ         0.00006  -0.00122   0.00061  -0.00044   0.00066
  36        5S         -0.00442  -0.03426   0.02422   0.04646  -0.02191
  37        5PX         0.00019   0.00329  -0.00176  -0.00696   0.00281
  38        5PY        -0.00083  -0.00503   0.00480   0.00589  -0.00394
  39        5PZ         0.00022   0.00165  -0.00144  -0.00159   0.00122
  40        6D 0        0.00000   0.00008  -0.00003  -0.00008  -0.00003
  41        6D+1        0.00000   0.00029  -0.00002   0.00000   0.00006
  42        6D-1        0.00000   0.00016  -0.00019  -0.00014  -0.00002
  43        6D+2        0.00000   0.00034  -0.00048  -0.00023   0.00000
  44        6D-2        0.00000  -0.00088   0.00005  -0.00001  -0.00019
  45 3   C  1S          0.00000   0.00000   0.00000   0.56291   0.00006
  46        2S          0.00000   0.00009   0.00010   0.46318   0.00007
  47        2PX         0.00000   0.00030  -0.00052  -0.00004   0.00001
  48        2PY         0.00000  -0.00040  -0.00011  -0.00046  -0.00004
  49        2PZ         0.00000   0.00013   0.00003   0.00015   0.00001
  50        3S         -0.00002   0.00008   0.00008   0.01969  -0.00012
  51        3PX         0.00000  -0.00089   0.00170  -0.00028  -0.00014
  52        3PY        -0.00001   0.00130   0.00042   0.00017   0.00036
  53        3PZ         0.00000  -0.00042  -0.00011  -0.00005  -0.00011
  54        4S          0.00030   0.00640   0.00503  -0.00950  -0.00123
  55        4PX         0.00003   0.00075  -0.00344   0.00146   0.00193
  56        4PY        -0.00010  -0.00490  -0.00279   0.00038   0.00113
  57        4PZ         0.00003   0.00157   0.00096  -0.00014  -0.00038
  58        5S          0.00044  -0.00088  -0.00201  -0.02273   0.00196
  59        5PX         0.00001  -0.00342   0.00314   0.00167   0.00023
  60        5PY        -0.00014   0.00147  -0.00081   0.00428   0.00073
  61        5PZ         0.00002  -0.00072   0.00016  -0.00157  -0.00023
  62        6D 0        0.00000   0.00009   0.00028  -0.00157  -0.00004
  63        6D+1        0.00000  -0.00034   0.00018  -0.00018  -0.00004
  64        6D-1        0.00000   0.00028  -0.00025  -0.00115   0.00000
  65        6D+2        0.00000   0.00056  -0.00109  -0.00045   0.00007
  66        6D-2        0.00000   0.00106  -0.00066   0.00070   0.00014
  67 4   N  1S          0.00000  -0.00037   0.55737  -0.00007   0.00000
  68        2S          0.00000  -0.00024   0.46568  -0.00002   0.00001
  69        2PX         0.00000   0.00007   0.00014   0.00048   0.00002
  70        2PY         0.00000   0.00002   0.00004   0.00007   0.00001
  71        2PZ         0.00000  -0.00001   0.00001  -0.00002   0.00000
  72        3S          0.00002  -0.00039   0.01643   0.00063  -0.00013
  73        3PX        -0.00001  -0.00050   0.00089  -0.00127  -0.00010
  74        3PY        -0.00001  -0.00005  -0.00034  -0.00018  -0.00007
  75        3PZ         0.00001   0.00003   0.00018   0.00004   0.00002
  76        4S         -0.00019  -0.00051  -0.01682  -0.00337   0.00082
  77        4PX        -0.00004  -0.00127  -0.00094  -0.00264   0.00072
  78        4PY         0.00017   0.00026   0.00040  -0.00005   0.00067
  79        4PZ        -0.00007  -0.00022  -0.00032  -0.00013  -0.00023
  80        5S         -0.00078  -0.01225   0.01380   0.02035   0.00461
  81        5PX        -0.00124  -0.01261   0.00520   0.00796   0.00122
  82        5PY         0.00077   0.00982  -0.00415   0.00224   0.00081
  83        5PZ        -0.00026  -0.00318   0.00137   0.00015   0.00004
  84        6D 0        0.00000   0.00006  -0.00045   0.00070   0.00002
  85        6D+1        0.00000   0.00005  -0.00005   0.00007   0.00000
  86        6D-1        0.00000  -0.00003  -0.00021   0.00011   0.00000
  87        6D+2        0.00000  -0.00017   0.00017  -0.00089  -0.00001
  88        6D-2        0.00000  -0.00017   0.00015  -0.00032  -0.00001
  89 5   H  1S         -0.00002   0.00003  -0.00013  -0.00007  -0.00002
  90        2S          0.00009  -0.00112  -0.00026   0.00043   0.00025
  91        3S          0.00061  -0.00048   0.00192   0.00145   0.00086
  92        4PX        -0.00002  -0.00031  -0.00018   0.00004   0.00002
  93        4PY         0.00001  -0.00008  -0.00034   0.00008   0.00002
  94        4PZ        -0.00001   0.00000   0.00010  -0.00002   0.00001
  95 6   H  1S          0.00000  -0.00016  -0.00001  -0.00010   0.00002
  96        2S         -0.00002   0.00019  -0.00105   0.00062  -0.00065
  97        3S         -0.00009   0.00156  -0.00049   0.00093  -0.00141
  98        4PX         0.00001  -0.00019   0.00014   0.00004  -0.00004
  99        4PY         0.00000  -0.00029  -0.00028   0.00009  -0.00022
 100        4PZ         0.00000   0.00009   0.00008  -0.00003   0.00007
 101 7   H  1S          0.00000  -0.00018  -0.00018  -0.00002   0.00002
 102        2S         -0.00001  -0.00004  -0.00008  -0.00396  -0.00056
 103        3S          0.00005   0.00161   0.00150   0.00163  -0.00158
 104        4PX         0.00000  -0.00023   0.00048   0.00089  -0.00010
 105        4PY         0.00001   0.00046   0.00019   0.00223   0.00021
 106        4PZ         0.00000  -0.00015  -0.00006  -0.00071  -0.00007
 107 8   N  1S          0.00000   0.55737   0.00036  -0.00006  -0.00003
 108        2S          0.00000   0.46566   0.00038  -0.00003  -0.00007
 109        2PX         0.00000   0.00014  -0.00004  -0.00029   0.00021
 110        2PY         0.00000   0.00003   0.00006   0.00034  -0.00002
 111        2PZ         0.00000  -0.00002  -0.00002  -0.00012   0.00001
 112        3S          0.00001   0.01649  -0.00034   0.00067   0.00034
 113        3PX         0.00000  -0.00094   0.00033   0.00077   0.00002
 114        3PY         0.00000   0.00038  -0.00037  -0.00080   0.00006
 115        3PZ         0.00000  -0.00014   0.00013   0.00028  -0.00003
 116        4S         -0.00001  -0.01776  -0.00071  -0.00356   0.00216
 117        4PX         0.00002   0.00152   0.00109   0.00172  -0.00216
 118        4PY        -0.00009  -0.00086  -0.00047  -0.00180  -0.00055
 119        4PZ         0.00003   0.00030   0.00014   0.00058   0.00017
 120        5S          0.00099   0.01549  -0.01007   0.00308   0.00854
 121        5PX        -0.00040  -0.01216   0.00865  -0.00131   0.01062
 122        5PY        -0.00013   0.00100   0.00055   0.00430  -0.00223
 123        5PZ         0.00004  -0.00037   0.00000  -0.00145   0.00065
 124        6D 0        0.00000  -0.00042   0.00004   0.00057   0.00011
 125        6D+1        0.00000   0.00005  -0.00006  -0.00027  -0.00002
 126        6D-1        0.00000  -0.00028   0.00008   0.00044  -0.00006
 127        6D+2        0.00000  -0.00002   0.00015   0.00017  -0.00036
 128        6D-2        0.00000  -0.00012   0.00018   0.00077   0.00005
 129 9   C  1S          0.00000   0.00000   0.00001  -0.00003  -0.00001
 130        2S          0.00000   0.00001  -0.00002  -0.00001   0.00000
 131        2PX         0.00000   0.00004   0.00022  -0.00001   0.00001
 132        2PY         0.00000  -0.00002  -0.00018  -0.00004   0.00000
 133        2PZ         0.00000   0.00002   0.00008   0.00003   0.00000
 134        3S          0.00001   0.00002  -0.00004  -0.00020  -0.00005
 135        3PX         0.00001  -0.00020  -0.00036  -0.00002  -0.00007
 136        3PY         0.00001   0.00011   0.00024   0.00021  -0.00001
 137        3PZ         0.00000  -0.00008  -0.00035  -0.00019  -0.00002
 138        4S         -0.00021  -0.00179   0.00429  -0.00017   0.00016
 139        4PX        -0.00017   0.00043   0.00132  -0.00004  -0.00052
 140        4PY         0.00002   0.00131  -0.00107   0.00099  -0.00012
 141        4PZ         0.00011   0.00010   0.00035   0.00059   0.00047
 142        5S         -0.00057  -0.01738  -0.00465  -0.02319  -0.00226
 143        5PX        -0.00020  -0.00306   0.00162   0.00042  -0.00137
 144        5PY         0.00038   0.00210  -0.00091  -0.00081   0.00076
 145        5PZ         0.00004  -0.00235  -0.00229  -0.00616  -0.00002
 146        6D 0        0.00001   0.00004   0.00022   0.00001   0.00002
 147        6D+1        0.00000  -0.00006  -0.00011  -0.00008   0.00000
 148        6D-1        0.00001  -0.00002   0.00011  -0.00005   0.00001
 149        6D+2        0.00000   0.00000  -0.00006   0.00010  -0.00003
 150        6D-2       -0.00001   0.00006   0.00042   0.00013   0.00003
 151 10  C  1S          0.00000   0.00000   0.00000   0.00000   0.00000
 152        2S          0.00000  -0.00001   0.00002   0.00000   0.00000
 153        2PX         0.00000   0.00001   0.00003  -0.00001   0.00000
 154        2PY         0.00000   0.00001  -0.00004  -0.00002   0.00000
 155        2PZ         0.00000   0.00000  -0.00007   0.00000   0.00000
 156        3S          0.00003   0.00010  -0.00012   0.00009   0.00008
 157        3PX         0.00000  -0.00003  -0.00022   0.00005   0.00001
 158        3PY         0.00000  -0.00006   0.00020   0.00008  -0.00001
 159        3PZ         0.00000   0.00000   0.00042  -0.00003   0.00000
 160        4S         -0.00023  -0.00094   0.00017  -0.00080  -0.00073
 161        4PX        -0.00001  -0.00055   0.00020  -0.00083  -0.00015
 162        4PY         0.00006  -0.00037  -0.00020   0.00001   0.00049
 163        4PZ         0.00008   0.00048   0.00006   0.00018   0.00013
 164        5S         -0.00066   0.00461   0.00907   0.01987  -0.00153
 165        5PX        -0.00002   0.00095   0.00130   0.00286   0.00005
 166        5PY         0.00009  -0.00056  -0.00143  -0.00233   0.00030
 167        5PZ         0.00016  -0.00057  -0.00165  -0.00364   0.00044
 168        6D 0        0.00000  -0.00002  -0.00008   0.00001  -0.00001
 169        6D+1        0.00000   0.00001   0.00011   0.00002   0.00001
 170        6D-1       -0.00001  -0.00002  -0.00012   0.00001  -0.00001
 171        6D+2        0.00000  -0.00004   0.00002  -0.00001   0.00001
 172        6D-2        0.00000   0.00001   0.00000  -0.00003  -0.00002
 173 11  H  1S          0.00000  -0.00001   0.00002   0.00001   0.00001
 174        2S         -0.00003   0.00030  -0.00112   0.00005  -0.00018
 175        3S         -0.00008  -0.00055   0.00122   0.00191   0.00029
 176        4PX         0.00000  -0.00001  -0.00022  -0.00001   0.00000
 177        4PY         0.00000   0.00002  -0.00015  -0.00002  -0.00001
 178        4PZ         0.00000   0.00003  -0.00011  -0.00001  -0.00004
 179 12  H  1S         -0.00001   0.00003   0.00001  -0.00001   0.00000
 180        2S          0.00006  -0.00048  -0.00099  -0.00051   0.00006
 181        3S         -0.00008  -0.00106   0.00074   0.00036   0.00016
 182        4PX         0.00000   0.00002   0.00006  -0.00005  -0.00001
 183        4PY        -0.00001   0.00000   0.00022   0.00003  -0.00001
 184        4PZ         0.00000  -0.00007  -0.00016  -0.00011   0.00000
 185 13  H  1S          0.00000  -0.00001  -0.00004   0.00000   0.00001
 186        2S          0.00001   0.00010  -0.00001  -0.00003  -0.00005
 187        3S          0.00007   0.00011   0.00014  -0.00041   0.00012
 188        4PX         0.00000   0.00006  -0.00003   0.00003  -0.00001
 189        4PY         0.00000   0.00002   0.00003   0.00004  -0.00001
 190        4PZ         0.00000  -0.00001  -0.00005  -0.00001  -0.00001
 191 14  H  1S          0.00001   0.00004   0.00006  -0.00005  -0.00001
 192        2S         -0.00003  -0.00033  -0.00036   0.00038   0.00017
 193        3S          0.00008  -0.00032  -0.00023  -0.00072   0.00050
 194        4PX         0.00000  -0.00001  -0.00013   0.00008   0.00002
 195        4PY         0.00001  -0.00003  -0.00004  -0.00001   0.00001
 196        4PZ         0.00000   0.00003   0.00010  -0.00005  -0.00002
 197 15  H  1S          0.00000  -0.00001   0.00004  -0.00004  -0.00001
 198        2S          0.00000   0.00016  -0.00026   0.00047   0.00009
 199        3S         -0.00001  -0.00024  -0.00032  -0.00086  -0.00028
 200        4PX         0.00000  -0.00004   0.00003  -0.00006  -0.00001
 201        4PY         0.00000   0.00002   0.00013   0.00002  -0.00001
 202        4PZ         0.00000  -0.00002   0.00007   0.00002   0.00000
 203 16  C  1S          0.00000   0.00002   0.00000  -0.00006   0.56300
 204        2S          0.00000  -0.00003   0.00002  -0.00004   0.46316
 205        2PX         0.00000  -0.00035  -0.00005  -0.00002  -0.00100
 206        2PY         0.00000   0.00001   0.00001  -0.00006   0.00009
 207        2PZ         0.00000   0.00000   0.00000   0.00002  -0.00003
 208        3S          0.00001   0.00006  -0.00010  -0.00016   0.01963
 209        3PX         0.00000   0.00078   0.00026   0.00017   0.00194
 210        3PY         0.00000  -0.00002  -0.00005   0.00020  -0.00006
 211        3PZ         0.00000  -0.00001   0.00001  -0.00008   0.00003
 212        4S         -0.00005   0.00527  -0.00071   0.00009  -0.01075
 213        4PX         0.00001  -0.00193   0.00003   0.00024   0.00163
 214        4PY         0.00000   0.00024   0.00043  -0.00009   0.00045
 215        4PZ         0.00000  -0.00002  -0.00013   0.00015  -0.00007
 216        5S          0.00027   0.00798  -0.00747   0.00333  -0.01192
 217        5PX        -0.00008  -0.00229   0.00235  -0.00092   0.00302
 218        5PY        -0.00004   0.00042  -0.00048   0.00002   0.00007
 219        5PZ         0.00003  -0.00004   0.00019   0.00005   0.00002
 220        6D 0        0.00000   0.00036   0.00002  -0.00001   0.00054
 221        6D+1        0.00000  -0.00001   0.00001   0.00003  -0.00003
 222        6D-1        0.00000   0.00004  -0.00001  -0.00005   0.00000
 223        6D+2        0.00000  -0.00051  -0.00008  -0.00010  -0.00094
 224        6D-2        0.00000   0.00001  -0.00002  -0.00010   0.00008
 225 17  H  1S          0.00000  -0.00001   0.00000   0.00003   0.00015
 226        2S          0.00000  -0.00112   0.00000  -0.00014  -0.00312
 227        3S          0.00003   0.00112  -0.00048  -0.00021   0.00226
 228        4PX         0.00000   0.00014   0.00002   0.00003   0.00049
 229        4PY         0.00000  -0.00010  -0.00004  -0.00003  -0.00055
 230        4PZ         0.00000   0.00030   0.00001   0.00004   0.00198
 231 18  H  1S          0.00000  -0.00001   0.00001   0.00003   0.00015
 232        2S          0.00000  -0.00112  -0.00005  -0.00012  -0.00306
 233        3S          0.00003   0.00128  -0.00032  -0.00001   0.00226
 234        4PX         0.00000   0.00014   0.00002   0.00002   0.00051
 235        4PY         0.00000  -0.00024  -0.00005  -0.00003  -0.00149
 236        4PZ         0.00000  -0.00020   0.00001  -0.00001  -0.00140
 237 19  H  1S          0.00000   0.00002   0.00000  -0.00006   0.00017
 238        2S          0.00001  -0.00111  -0.00021  -0.00006  -0.00332
 239        3S          0.00003   0.00076  -0.00058  -0.00080   0.00178
 240        4PX         0.00000   0.00018  -0.00002   0.00007   0.00069
 241        4PY         0.00000   0.00026   0.00003   0.00003   0.00198
 242        4PZ         0.00000  -0.00008  -0.00001  -0.00001  -0.00055
 243 20  Cl 1S          0.41161   0.00000   0.00000   0.00000   0.00000
 244        2S          0.65408   0.00000   0.00000   0.00000   0.00000
 245        3S          0.01499   0.00001   0.00002  -0.00002   0.00001
 246        4S         -0.00395  -0.00002  -0.00005   0.00005  -0.00002
 247        5S          0.00147   0.00004   0.00015  -0.00016   0.00007
 248        6S         -0.00103  -0.00010  -0.00023   0.00035  -0.00022
 249        7S          0.00106   0.00137   0.00000  -0.00263   0.00247
 250        7PX         0.00045   0.00041   0.00016  -0.00093   0.00083
 251        7PY         0.00011   0.00020   0.00012  -0.00023   0.00006
 252        7PZ         0.00005   0.00008  -0.00008  -0.00009   0.00019
 253        8PX         0.00001   0.00000   0.00000   0.00000  -0.00001
 254        8PY         0.00000  -0.00001   0.00000   0.00000   0.00000
 255        8PZ         0.00000   0.00000   0.00000   0.00000   0.00000
 256        9PX         0.00000   0.00000   0.00000   0.00000   0.00000
 257        9PY         0.00000   0.00000   0.00000   0.00000   0.00000
 258        9PZ         0.00000   0.00000   0.00000   0.00000   0.00000
 259       10PX        -0.00002  -0.00001   0.00000  -0.00002   0.00003
 260       10PY         0.00000   0.00002   0.00000   0.00001   0.00001
 261       10PZ         0.00000  -0.00001   0.00000  -0.00001   0.00000
 262       11PX         0.00003   0.00001   0.00002   0.00003  -0.00008
 263       11PY         0.00000  -0.00003   0.00001  -0.00004  -0.00002
 264       11PZ         0.00000   0.00001   0.00001   0.00002  -0.00001
 265       12PX        -0.00018  -0.00001  -0.00028  -0.00012   0.00021
 266       12PY        -0.00002  -0.00002  -0.00003   0.00029   0.00010
 267       12PZ        -0.00003  -0.00001  -0.00004  -0.00007   0.00000
 268       13D 0        0.00000   0.00000   0.00002  -0.00001   0.00000
 269       13D+1        0.00000   0.00001   0.00000  -0.00001   0.00000
 270       13D-1        0.00000  -0.00001   0.00001   0.00001   0.00000
 271       13D+2       -0.00001   0.00000  -0.00002  -0.00001   0.00000
 272       13D-2        0.00000  -0.00002  -0.00001   0.00003   0.00000
                           6         7         8         9        10
                           O         O         O         O         O
     Eigenvalues --   -10.25622 -10.23894 -10.23164 -10.17218  -9.29265
   1 1   C  1S          0.01099   0.56278   0.00026   0.00000   0.00000
   2        2S          0.00935   0.46308   0.00023  -0.00001  -0.00004
   3        2PX         0.00076   0.00041  -0.00002   0.00001   0.00008
   4        2PY        -0.00029   0.00104   0.00006  -0.00001   0.00003
   5        2PZ         0.00011  -0.00032  -0.00002   0.00001  -0.00005
   6        3S         -0.00037   0.02007  -0.00020   0.00006   0.00029
   7        3PX        -0.00365   0.00107   0.00004  -0.00006  -0.00055
   8        3PY         0.00141  -0.00136  -0.00039   0.00015  -0.00001
   9        3PZ        -0.00053   0.00037   0.00011  -0.00004   0.00013
  10        4S          0.00593  -0.01756  -0.00001   0.00248   0.00365
  11        4PX         0.00554  -0.00565  -0.00167   0.00323   0.00914
  12        4PY        -0.00016  -0.00063   0.00000  -0.00114   0.00447
  13        4PZ         0.00017   0.00006  -0.00009   0.00009  -0.00147
  14        5S          0.02819  -0.04299   0.05623   0.05470   0.07637
  15        5PX         0.01027  -0.00654   0.01828   0.02117   0.04187
  16        5PY         0.00016  -0.00166  -0.00613  -0.00840   0.00833
  17        5PZ         0.00022   0.00023   0.00180   0.00313   0.00011
  18        6D 0        0.00090  -0.00176  -0.00012   0.00004  -0.00003
  19        6D+1       -0.00041   0.00012  -0.00002   0.00001  -0.00005
  20        6D-1        0.00000  -0.00041   0.00000  -0.00002  -0.00012
  21        6D+2       -0.00162   0.00186   0.00021   0.00005  -0.00022
  22        6D-2        0.00115   0.00010   0.00004   0.00002   0.00008
  23 2   C  1S          0.56279  -0.01116   0.00002   0.00000   0.00000
  24        2S          0.46304  -0.00889   0.00004   0.00000  -0.00003
  25        2PX         0.00084  -0.00080  -0.00003   0.00000  -0.00003
  26        2PY         0.00046   0.00026   0.00001   0.00001   0.00001
  27        2PZ        -0.00013  -0.00009   0.00000  -0.00001   0.00000
  28        3S          0.02029  -0.00115  -0.00019  -0.00001   0.00024
  29        3PX        -0.00191   0.00377   0.00022   0.00005   0.00016
  30        3PY        -0.00030  -0.00146  -0.00006  -0.00006  -0.00002
  31        3PZ         0.00004   0.00051   0.00002   0.00005   0.00001
  32        4S         -0.01847   0.00533   0.00211  -0.00303  -0.00716
  33        4PX         0.00475  -0.00331  -0.00075   0.00139  -0.00003
  34        4PY        -0.00611   0.00204   0.00177   0.00010  -0.00341
  35        4PZ         0.00203  -0.00066  -0.00052  -0.00007   0.00108
  36        5S         -0.04202   0.03025  -0.05160  -0.05554  -0.08768
  37        5PX         0.00088  -0.00767   0.01311   0.01430   0.00373
  38        5PY        -0.00652   0.00444  -0.00315  -0.00337  -0.01648
  39        5PZ         0.00207  -0.00139   0.00149   0.00124   0.00437
  40        6D 0       -0.00158   0.00088  -0.00001   0.00000  -0.00002
  41        6D+1        0.00053  -0.00054  -0.00003  -0.00002   0.00001
  42        6D-1       -0.00103   0.00007  -0.00002  -0.00001   0.00000
  43        6D+2       -0.00007  -0.00140  -0.00001  -0.00002   0.00003
  44        6D-2       -0.00153   0.00154   0.00008   0.00001  -0.00003
  45 3   C  1S          0.00003   0.00002   0.00003   0.00000   0.00000
  46        2S          0.00003   0.00002   0.00004   0.00000   0.00002
  47        2PX         0.00003   0.00003  -0.00008   0.00000   0.00000
  48        2PY         0.00008   0.00008   0.00002   0.00001   0.00002
  49        2PZ        -0.00003  -0.00002   0.00001  -0.00002  -0.00001
  50        3S         -0.00016  -0.00011  -0.00020   0.00004  -0.00041
  51        3PX        -0.00004  -0.00011   0.00052  -0.00008   0.00002
  52        3PY        -0.00028  -0.00021  -0.00001  -0.00006  -0.00009
  53        3PZ         0.00009   0.00006  -0.00004   0.00010   0.00006
  54        4S         -0.00068  -0.00064   0.00035   0.00172   0.00559
  55        4PX        -0.00158   0.00063  -0.00136   0.00030   0.00056
  56        4PY         0.00001  -0.00086   0.00124  -0.00178  -0.00203
  57        4PZ         0.00000   0.00028  -0.00035   0.00006   0.00063
  58        5S         -0.00440  -0.00331   0.00186   0.00152   0.00834
  59        5PX        -0.00245  -0.00034  -0.00135   0.00165   0.00049
  60        5PY         0.00229   0.00114   0.00139  -0.00135  -0.00284
  61        5PZ        -0.00083  -0.00035  -0.00058  -0.00017   0.00034
  62        6D 0       -0.00009  -0.00010  -0.00008   0.00002  -0.00008
  63        6D+1       -0.00004  -0.00007   0.00000   0.00006  -0.00002
  64        6D-1       -0.00014  -0.00009  -0.00010  -0.00002  -0.00007
  65        6D+2       -0.00022  -0.00009  -0.00019  -0.00002   0.00000
  66        6D-2        0.00011   0.00023   0.00000   0.00001   0.00005
  67 4   N  1S          0.00000  -0.00005  -0.00002   0.00000   0.00000
  68        2S          0.00003  -0.00008  -0.00006   0.00002  -0.00002
  69        2PX        -0.00006   0.00004  -0.00016  -0.00005   0.00005
  70        2PY        -0.00008  -0.00033   0.00012   0.00005   0.00003
  71        2PZ         0.00002   0.00011  -0.00006  -0.00001  -0.00001
  72        3S         -0.00003   0.00086   0.00023  -0.00011   0.00037
  73        3PX         0.00018  -0.00026   0.00011   0.00027  -0.00021
  74        3PY         0.00046   0.00044  -0.00002  -0.00025  -0.00020
  75        3PZ        -0.00014  -0.00017   0.00008   0.00002   0.00009
  76        4S         -0.00227  -0.00183   0.00270   0.00018  -0.00347
  77        4PX         0.00011   0.00121  -0.00067  -0.00159  -0.00063
  78        4PY         0.00019   0.00047   0.00030   0.00125   0.00315
  79        4PZ        -0.00014  -0.00011   0.00007  -0.00035  -0.00134
  80        5S         -0.01692   0.02086   0.00185  -0.00162  -0.01505
  81        5PX        -0.01091   0.01046  -0.02242  -0.01802  -0.02336
  82        5PY         0.00296  -0.01284   0.01348   0.00975   0.01487
  83        5PZ        -0.00130   0.00465  -0.00383  -0.00218  -0.00501
  84        6D 0        0.00004   0.00040   0.00006   0.00004   0.00007
  85        6D+1        0.00006  -0.00003  -0.00014  -0.00002   0.00000
  86        6D-1        0.00011   0.00041   0.00006   0.00001   0.00003
  87        6D+2        0.00025   0.00042  -0.00005  -0.00001   0.00005
  88        6D-2       -0.00019   0.00005   0.00030   0.00002   0.00003
  89 5   H  1S         -0.00006   0.00017   0.00006  -0.00005  -0.00023
  90        2S          0.00000  -0.00471  -0.00099   0.00058   0.00155
  91        3S          0.00225   0.00329  -0.00049  -0.00043   0.01191
  92        4PX        -0.00041  -0.00212  -0.00012   0.00000  -0.00033
  93        4PY         0.00017  -0.00117  -0.00020  -0.00001   0.00015
  94        4PZ        -0.00006   0.00026   0.00007   0.00000  -0.00014
  95 6   H  1S          0.00015  -0.00012  -0.00002  -0.00001   0.00003
  96        2S         -0.00534  -0.00032   0.00018   0.00010  -0.00029
  97        3S          0.00156   0.00091   0.00125   0.00057  -0.00173
  98        4PX         0.00063   0.00045   0.00002  -0.00004   0.00008
  99        4PY        -0.00241  -0.00022   0.00002   0.00000   0.00000
 100        4PZ         0.00077   0.00007  -0.00001   0.00000   0.00001
 101 7   H  1S         -0.00006  -0.00006   0.00004  -0.00005   0.00001
 102        2S          0.00014   0.00012  -0.00068   0.00052  -0.00015
 103        3S          0.00169   0.00172  -0.00055  -0.00009   0.00096
 104        4PX         0.00007  -0.00007   0.00025  -0.00004  -0.00002
 105        4PY        -0.00004   0.00002   0.00011   0.00000   0.00010
 106        4PZ         0.00002   0.00000  -0.00003   0.00003  -0.00002
 107 8   N  1S         -0.00005   0.00000   0.00000   0.00000   0.00000
 108        2S         -0.00007   0.00004   0.00000  -0.00001  -0.00001
 109        2PX        -0.00028  -0.00002  -0.00002  -0.00001  -0.00001
 110        2PY        -0.00021  -0.00009   0.00002   0.00000  -0.00001
 111        2PZ         0.00006   0.00003  -0.00001   0.00001   0.00001
 112        3S          0.00079  -0.00011   0.00005   0.00010   0.00013
 113        3PX         0.00057   0.00026   0.00011   0.00007   0.00002
 114        3PY         0.00013   0.00048  -0.00013  -0.00002   0.00004
 115        3PZ        -0.00003  -0.00016   0.00006  -0.00002  -0.00002
 116        4S         -0.00096  -0.00170  -0.00078  -0.00139  -0.00038
 117        4PX        -0.00079  -0.00015  -0.00015  -0.00009   0.00037
 118        4PY         0.00112   0.00001   0.00093  -0.00023  -0.00164
 119        4PZ        -0.00038   0.00001  -0.00037   0.00019   0.00056
 120        5S          0.02361  -0.01394   0.01782   0.01035   0.01858
 121        5PX        -0.02065   0.00738  -0.01164  -0.00741  -0.00734
 122        5PY        -0.00032  -0.00280   0.00374   0.00247  -0.00260
 123        5PZ        -0.00003   0.00083  -0.00175  -0.00095   0.00078
 124        6D 0        0.00046   0.00003   0.00003   0.00000   0.00004
 125        6D+1        0.00015   0.00008  -0.00001  -0.00001  -0.00002
 126        6D-1        0.00024   0.00008   0.00002   0.00000   0.00002
 127        6D+2       -0.00011   0.00017   0.00001   0.00000  -0.00001
 128        6D-2       -0.00048  -0.00025   0.00002   0.00001   0.00005
 129 9   C  1S         -0.00003  -0.00026   0.56301  -0.00113   0.00000
 130        2S         -0.00001  -0.00020   0.46322  -0.00098   0.00000
 131        2PX         0.00002   0.00002   0.00107  -0.00016  -0.00007
 132        2PY         0.00000   0.00003  -0.00039   0.00017  -0.00007
 133        2PZ         0.00001   0.00001   0.00043   0.00043   0.00004
 134        3S         -0.00027  -0.00028   0.01969   0.00061   0.00018
 135        3PX        -0.00010  -0.00009  -0.00119   0.00018   0.00018
 136        3PY         0.00005  -0.00012   0.00027  -0.00025   0.00020
 137        3PZ        -0.00010  -0.00009  -0.00167  -0.00102  -0.00011
 138        4S          0.00151   0.00278  -0.01975  -0.00187  -0.00412
 139        4PX         0.00021   0.00068  -0.00174  -0.00239  -0.00310
 140        4PY        -0.00067  -0.00034   0.00231   0.00228   0.00031
 141        4PZ         0.00068   0.00066  -0.00199   0.00178   0.00199
 142        5S         -0.00801   0.00165  -0.04208   0.01478  -0.01004
 143        5PX        -0.00068   0.00216  -0.00346  -0.00196  -0.00382
 144        5PY        -0.00024  -0.00299   0.00358   0.00269   0.00762
 145        5PZ        -0.00134  -0.00103  -0.00693   0.00391   0.00092
 146        6D 0       -0.00001  -0.00003   0.00015  -0.00034   0.00011
 147        6D+1        0.00002   0.00002  -0.00003   0.00035   0.00010
 148        6D-1        0.00001  -0.00002  -0.00011  -0.00037   0.00022
 149        6D+2       -0.00006  -0.00007  -0.00016  -0.00004   0.00000
 150        6D-2        0.00002   0.00001   0.00126   0.00035  -0.00014
 151 10  C  1S          0.00000   0.00000   0.00112   0.56295   0.00000
 152        2S          0.00000   0.00000   0.00088   0.46315  -0.00003
 153        2PX         0.00001   0.00001   0.00013   0.00025  -0.00001
 154        2PY        -0.00001   0.00002  -0.00016   0.00003  -0.00003
 155        2PZ        -0.00001  -0.00002  -0.00044  -0.00034  -0.00001
 156        3S          0.00009   0.00007   0.00041   0.01979   0.00052
 157        3PX        -0.00003  -0.00005  -0.00033  -0.00080   0.00002
 158        3PY         0.00003  -0.00008   0.00037   0.00035   0.00003
 159        3PZ         0.00005   0.00009   0.00113   0.00126   0.00002
 160        4S         -0.00153  -0.00028   0.00367  -0.01364  -0.00437
 161        4PX         0.00000  -0.00043   0.00017  -0.00163  -0.00014
 162        4PY         0.00033   0.00055  -0.00043   0.00172   0.00116
 163        4PZ         0.00028  -0.00020  -0.00124   0.00192   0.00140
 164        5S          0.00485   0.00754   0.01833  -0.02034  -0.01392
 165        5PX         0.00051   0.00063   0.00222  -0.00125  -0.00052
 166        5PY        -0.00076  -0.00095  -0.00233   0.00189   0.00199
 167        5PZ        -0.00092  -0.00166  -0.00282   0.00375   0.00342
 168        6D 0        0.00001   0.00002  -0.00067  -0.00050   0.00000
 169        6D+1        0.00001   0.00001   0.00043   0.00039  -0.00004
 170        6D-1       -0.00002  -0.00003  -0.00053  -0.00051  -0.00012
 171        6D+2        0.00001  -0.00001   0.00007  -0.00001   0.00001
 172        6D-2        0.00000  -0.00001   0.00010   0.00022   0.00003
 173 11  H  1S          0.00002   0.00002   0.00005  -0.00008  -0.00004
 174        2S         -0.00045  -0.00040  -0.00263  -0.00039  -0.00052
 175        3S         -0.00104   0.00134   0.00320  -0.00314  -0.00142
 176        4PX        -0.00004  -0.00008  -0.00150  -0.00019   0.00001
 177        4PY         0.00000   0.00006  -0.00129  -0.00008  -0.00006
 178        4PZ        -0.00007  -0.00009  -0.00081  -0.00012   0.00006
 179 12  H  1S          0.00002   0.00004   0.00007  -0.00012  -0.00009
 180        2S         -0.00018  -0.00036  -0.00251  -0.00015   0.00115
 181        3S          0.00052   0.00249   0.00164  -0.00309  -0.00154
 182        4PX         0.00003   0.00002   0.00084   0.00011  -0.00004
 183        4PY         0.00002   0.00001   0.00144   0.00012  -0.00016
 184        4PZ        -0.00003  -0.00004  -0.00123  -0.00019   0.00009
 185 13  H  1S         -0.00004   0.00000  -0.00002   0.00022   0.00001
 186        2S          0.00024  -0.00003  -0.00112  -0.00336   0.00013
 187        3S         -0.00016  -0.00067  -0.00021   0.00377   0.00145
 188        4PX         0.00001  -0.00001  -0.00027  -0.00151   0.00001
 189        4PY        -0.00005   0.00000   0.00025   0.00133  -0.00006
 190        4PZ        -0.00001  -0.00001  -0.00013  -0.00063  -0.00002
 191 14  H  1S         -0.00001   0.00000  -0.00003   0.00021   0.00013
 192        2S          0.00016   0.00017  -0.00097  -0.00325  -0.00055
 193        3S         -0.00043  -0.00026   0.00003   0.00410   0.00164
 194        4PX        -0.00001  -0.00003  -0.00010  -0.00075  -0.00005
 195        4PY         0.00005   0.00003  -0.00026  -0.00159   0.00014
 196        4PZ         0.00002   0.00006   0.00011   0.00116   0.00005
 197 15  H  1S         -0.00001  -0.00004  -0.00008   0.00019   0.00001
 198        2S          0.00008   0.00036  -0.00072  -0.00262   0.00000
 199        3S          0.00016  -0.00013  -0.00051   0.00301  -0.00006
 200        4PX         0.00002   0.00000   0.00023   0.00148  -0.00002
 201        4PY        -0.00004  -0.00003   0.00015   0.00090  -0.00004
 202        4PZ        -0.00002  -0.00002   0.00011   0.00090  -0.00004
 203 16  C  1S          0.00008   0.00001   0.00001   0.00000   0.00000
 204        2S          0.00008   0.00003   0.00001  -0.00001  -0.00001
 205        2PX         0.00001  -0.00001   0.00000   0.00002  -0.00001
 206        2PY         0.00003   0.00001   0.00001   0.00000  -0.00003
 207        2PZ        -0.00001   0.00000   0.00000   0.00001   0.00001
 208        3S         -0.00019  -0.00024  -0.00010   0.00002   0.00010
 209        3PX        -0.00002   0.00012   0.00002  -0.00009   0.00005
 210        3PY        -0.00010  -0.00002  -0.00007  -0.00002   0.00008
 211        3PZ         0.00004   0.00001   0.00001  -0.00004  -0.00003
 212        4S          0.00254   0.00185   0.00109   0.00050  -0.00094
 213        4PX        -0.00079  -0.00071  -0.00037   0.00000   0.00022
 214        4PY         0.00013  -0.00005  -0.00051  -0.00001   0.00002
 215        4PZ        -0.00005   0.00008   0.00041   0.00022   0.00001
 216        5S          0.01517   0.00269  -0.00044  -0.00351   0.00522
 217        5PX        -0.00480  -0.00083   0.00008   0.00096  -0.00154
 218        5PY        -0.00021  -0.00020   0.00038   0.00047  -0.00074
 219        5PZ         0.00008   0.00004  -0.00002   0.00019   0.00052
 220        6D 0       -0.00003   0.00001   0.00003   0.00001   0.00003
 221        6D+1       -0.00002  -0.00001   0.00000   0.00002   0.00003
 222        6D-1       -0.00002  -0.00001   0.00000   0.00001   0.00001
 223        6D+2        0.00001  -0.00003   0.00001   0.00001   0.00000
 224        6D-2        0.00006   0.00005   0.00002  -0.00002  -0.00008
 225 17  H  1S          0.00000   0.00002   0.00005   0.00002   0.00002
 226        2S         -0.00009  -0.00032  -0.00044  -0.00013  -0.00007
 227        3S          0.00114  -0.00121   0.00140   0.00093   0.00055
 228        4PX         0.00005   0.00005   0.00002  -0.00001   0.00002
 229        4PY         0.00001   0.00001   0.00001  -0.00001  -0.00001
 230        4PZ         0.00003   0.00007   0.00006   0.00001   0.00000
 231 18  H  1S          0.00000   0.00001   0.00003   0.00001   0.00002
 232        2S         -0.00010  -0.00025  -0.00027  -0.00011  -0.00004
 233        3S          0.00115  -0.00122   0.00143   0.00146   0.00054
 234        4PX         0.00005   0.00005   0.00003  -0.00002   0.00003
 235        4PY        -0.00001  -0.00002   0.00000   0.00001   0.00001
 236        4PZ        -0.00002  -0.00006  -0.00005  -0.00001   0.00000
 237 19  H  1S          0.00002   0.00002  -0.00001   0.00000  -0.00001
 238        2S         -0.00024  -0.00029   0.00006   0.00004   0.00013
 239        3S          0.00196  -0.00031   0.00101   0.00027   0.00061
 240        4PX        -0.00001   0.00004   0.00000   0.00001  -0.00002
 241        4PY         0.00003   0.00007  -0.00003  -0.00002  -0.00003
 242        4PZ        -0.00001  -0.00002  -0.00001  -0.00001   0.00000
 243 20  Cl 1S          0.00000   0.00000   0.00000   0.00000  -0.12180
 244        2S          0.00000   0.00000   0.00000   0.00000  -0.32695
 245        3S          0.00002   0.00003   0.00000   0.00003   0.49749
 246        4S         -0.00005  -0.00008  -0.00001  -0.00008   0.61081
 247        5S          0.00014   0.00025   0.00007   0.00027   0.05832
 248        6S         -0.00038  -0.00048  -0.00023  -0.00066  -0.02352
 249        7S          0.00102  -0.00041   0.00331   0.00372   0.02173
 250        7PX         0.00036   0.00018   0.00091   0.00096   0.00919
 251        7PY        -0.00006  -0.00036   0.00056   0.00078   0.00237
 252        7PZ         0.00010   0.00001  -0.00022   0.00015   0.00098
 253        8PX        -0.00001  -0.00001  -0.00001  -0.00003   0.00083
 254        8PY        -0.00001  -0.00001  -0.00001  -0.00003   0.00030
 255        8PZ         0.00000   0.00000  -0.00002   0.00000   0.00003
 256        9PX         0.00000  -0.00001   0.00000  -0.00001  -0.00029
 257        9PY         0.00000   0.00000  -0.00001  -0.00001  -0.00011
 258        9PZ         0.00000   0.00000  -0.00001   0.00000  -0.00001
 259       10PX         0.00004   0.00004   0.00006   0.00010   0.00006
 260       10PY         0.00002   0.00003   0.00006   0.00009   0.00007
 261       10PZ        -0.00001  -0.00001   0.00006   0.00001  -0.00002
 262       11PX        -0.00008  -0.00006  -0.00015  -0.00019   0.00043
 263       11PY        -0.00004  -0.00007  -0.00015  -0.00014   0.00004
 264       11PZ         0.00002   0.00001  -0.00012   0.00000   0.00009
 265       12PX        -0.00011  -0.00053   0.00008   0.00020  -0.00349
 266       12PY        -0.00002   0.00008  -0.00001  -0.00019  -0.00049
 267       12PZ        -0.00010  -0.00007   0.00035  -0.00008  -0.00055
 268       13D 0        0.00001   0.00002   0.00002   0.00001   0.00006
 269       13D+1       -0.00001   0.00000   0.00003  -0.00001  -0.00005
 270       13D-1        0.00000   0.00001   0.00001  -0.00003   0.00000
 271       13D+2        0.00001  -0.00003  -0.00001   0.00002  -0.00010
 272       13D-2        0.00000  -0.00002  -0.00004  -0.00005  -0.00001
                          11        12        13        14        15
                           O         O         O         O         O
     Eigenvalues --    -7.05108  -7.05086  -7.05062  -1.11187  -0.99506
   1 1   C  1S          0.00000   0.00000   0.00000  -0.03206  -0.02625
   2        2S          0.00000   0.00000   0.00000  -0.04902  -0.04029
   3        2PX         0.00001   0.00000   0.00000   0.02160  -0.00225
   4        2PY         0.00000   0.00000   0.00000   0.02496   0.03446
   5        2PZ         0.00000   0.00000   0.00000  -0.00787  -0.01129
   6        3S          0.00002   0.00000   0.00000   0.12284   0.10267
   7        3PX        -0.00006  -0.00002   0.00001   0.03197  -0.00318
   8        3PY        -0.00003   0.00000   0.00000   0.03732   0.05520
   9        3PZ         0.00001   0.00000   0.00000  -0.01174  -0.01795
  10        4S         -0.00007   0.00014  -0.00002   0.04203   0.06782
  11        4PX        -0.00020   0.00025  -0.00009   0.00232   0.01185
  12        4PY        -0.00005   0.00003  -0.00001   0.00325   0.00505
  13        4PZ         0.00001   0.00000   0.00000  -0.00105  -0.00158
  14        5S         -0.00261   0.00145  -0.00021  -0.05180   0.29860
  15        5PX        -0.00122   0.00067  -0.00013  -0.02245   0.06745
  16        5PY         0.00016   0.00016  -0.00018   0.00539   0.01561
  17        5PZ        -0.00011  -0.00005   0.00001   0.00024  -0.00182
  18        6D 0       -0.00001   0.00000   0.00000  -0.00825  -0.00448
  19        6D+1       -0.00001   0.00000   0.00000  -0.00158  -0.00136
  20        6D-1        0.00000   0.00000   0.00000  -0.00590  -0.00748
  21        6D+2        0.00002   0.00001  -0.00001  -0.00213  -0.01292
  22        6D-2        0.00004  -0.00001   0.00000   0.00543   0.00395
  23 2   C  1S          0.00000   0.00000   0.00000  -0.03551   0.01952
  24        2S          0.00000   0.00000   0.00000  -0.05434   0.02994
  25        2PX         0.00000   0.00000   0.00000   0.00652  -0.03049
  26        2PY         0.00000   0.00000   0.00000   0.03404  -0.01515
  27        2PZ         0.00000   0.00000   0.00000  -0.01106   0.00456
  28        3S          0.00000   0.00001   0.00000   0.13605  -0.07591
  29        3PX        -0.00003   0.00001   0.00000   0.01082  -0.04794
  30        3PY         0.00001   0.00000   0.00000   0.05056  -0.02588
  31        3PZ         0.00000   0.00000   0.00000  -0.01638   0.00788
  32        4S          0.00020  -0.00024   0.00007   0.05650  -0.06376
  33        4PX        -0.00002   0.00007  -0.00002  -0.00089   0.00070
  34        4PY         0.00009  -0.00008   0.00003   0.00498  -0.00940
  35        4PZ        -0.00002   0.00002  -0.00001  -0.00174   0.00281
  36        5S          0.00299  -0.00132   0.00014   0.05484  -0.29932
  37        5PX        -0.00038   0.00008   0.00009  -0.00247   0.03752
  38        5PY         0.00038  -0.00022   0.00008   0.00408  -0.05294
  39        5PZ        -0.00010   0.00008  -0.00001  -0.00250   0.01646
  40        6D 0        0.00000   0.00000   0.00000  -0.00880   0.00403
  41        6D+1        0.00000   0.00000   0.00000  -0.00136   0.00433
  42        6D-1        0.00000   0.00000   0.00000  -0.00720   0.00304
  43        6D+2        0.00001   0.00000   0.00000  -0.00469   0.00198
  44        6D-2        0.00000   0.00000   0.00000   0.00467  -0.01348
  45 3   C  1S          0.00000   0.00000   0.00000  -0.05766  -0.00625
  46        2S          0.00000   0.00000   0.00000  -0.08827  -0.00961
  47        2PX         0.00000   0.00000   0.00000  -0.01488  -0.06826
  48        2PY         0.00000   0.00000   0.00000  -0.04424   0.01960
  49        2PZ         0.00000   0.00000   0.00000   0.01417  -0.00730
  50        3S          0.00000   0.00000   0.00000   0.22762   0.02530
  51        3PX         0.00001  -0.00001   0.00001  -0.02095  -0.09804
  52        3PY         0.00000   0.00000   0.00000  -0.06457   0.02883
  53        3PZ         0.00000   0.00000   0.00000   0.02073  -0.01059
  54        4S         -0.00015   0.00007  -0.00007   0.06707   0.00829
  55        4PX         0.00001  -0.00001   0.00001   0.00512  -0.00829
  56        4PY         0.00004  -0.00002   0.00002   0.01178   0.00458
  57        4PZ        -0.00001   0.00000  -0.00001  -0.00402  -0.00222
  58        5S          0.00006  -0.00020   0.00000   0.08626   0.01556
  59        5PX        -0.00008  -0.00013   0.00009   0.00198  -0.02976
  60        5PY         0.00006   0.00013  -0.00005  -0.02582   0.00870
  61        5PZ        -0.00001  -0.00004   0.00000   0.00971  -0.00227
  62        6D 0        0.00000   0.00000   0.00000  -0.01370  -0.00260
  63        6D+1        0.00000   0.00000   0.00000   0.00021  -0.00519
  64        6D-1        0.00000   0.00000   0.00000  -0.00895   0.00388
  65        6D+2        0.00000   0.00000   0.00000  -0.00093   0.01437
  66        6D-2        0.00000   0.00000   0.00000   0.00053   0.01677
  67 4   N  1S          0.00000   0.00000   0.00000  -0.06343  -0.08074
  68        2S          0.00000   0.00000   0.00000  -0.09947  -0.12720
  69        2PX         0.00000   0.00000   0.00000   0.03116   0.00404
  70        2PY         0.00000   0.00000   0.00000  -0.01287  -0.00061
  71        2PZ         0.00000   0.00000   0.00000   0.00530   0.00157
  72        3S          0.00000   0.00000   0.00000   0.27099   0.35366
  73        3PX        -0.00001   0.00001  -0.00001   0.04472   0.00303
  74        3PY         0.00000   0.00000   0.00000  -0.01838  -0.00064
  75        3PZ         0.00000   0.00000   0.00000   0.00759   0.00225
  76        4S          0.00001  -0.00001  -0.00002   0.18411   0.25199
  77        4PX         0.00011  -0.00008   0.00008   0.02428  -0.00783
  78        4PY        -0.00006   0.00003  -0.00002  -0.00860   0.01223
  79        4PZ         0.00002  -0.00001  -0.00001   0.00471  -0.00250
  80        5S          0.00012  -0.00022  -0.00006  -0.07244  -0.17945
  81        5PX         0.00029  -0.00040   0.00021   0.02238  -0.07579
  82        5PY        -0.00011   0.00027  -0.00009  -0.01907   0.05440
  83        5PZ         0.00007  -0.00006   0.00005   0.00364  -0.02032
  84        6D 0        0.00000   0.00000   0.00000  -0.00825  -0.00692
  85        6D+1        0.00000   0.00000   0.00000   0.00078  -0.00006
  86        6D-1        0.00000   0.00000   0.00000  -0.00390  -0.00422
[...]
    22. CR (   1) C   1                  1.99916   -10.10020  108(v),262(v),57(v),258(v)
                                                    256(v),95(v),252(g)
    23. CR (   1) C   2                  1.99917   -10.12019  40(v),263(v),255(v),261(v)
                                                    252(g),113(v)
    24. CR (   1) C   3                  1.99922   -10.17557  263(v),262(v),254(v),257(v)
                                                    118(v)
    25. CR (   1) N   4                  1.99928   -14.25724  142(v),41(v),77(v),74(v)
    26. CR (   1) N   8                  1.99929   -14.27823  59(v),201(v),77(v),78(v)
    27. CR (   1) C   9                  1.99927   -10.09774  258(v),254(v),174(v),159(v)
                                                    160(v)
    28. CR (   1) C  10                  1.99934   -10.03209  143(v),189(v)
    29. CR (   1) C  16                  1.99933   -10.14383  257(v),261(v)
    35. LP (   1) N   8                  1.51552    -0.33271  259(v),253(v),271(v),270(v)
                                                    58(v),76(v),200(v)
    40. RY*(   1) C   1                  0.00498     1.25114   
    41. RY*(   2) C   1                  0.00355     1.00481   
    42. RY*(   3) C   1                  0.00254     0.58034   
    43. RY*(   4) C   1                  0.00143     0.77450   
    44. RY*(   5) C   1                  0.00062     1.42939   
    45. RY*(   6) C   1                  0.00033     2.09984   
    46. RY*(   7) C   1                  0.00028     0.75554   
    47. RY*(   8) C   1                  0.00012     2.77701   
    48. RY*(   9) C   1                  0.00008     1.63268   
    49. RY*(  10) C   1                  0.00007     0.78803   
    50. RY*(  11) C   1                  0.00007     1.84092   
    51. RY*(  12) C   1                  0.00006     1.53961   
    52. RY*(  13) C   1                  0.00001     2.56631   
    53. RY*(  14) C   1                  0.00001     1.86725   
    54. RY*(  15) C   1                  0.00002     3.15892   
    55. RY*(  16) C   1                  0.00000    21.14984   
    56. RY*(  17) C   1                  0.00001     2.21375   
    57. RY*(   1) C   2                  0.00417     1.45935   
    58. RY*(   2) C   2                  0.00237     0.69276   
    59. RY*(   3) C   2                  0.00136     1.03759   
    60. RY*(   4) C   2                  0.00060     1.31187   
    61. RY*(   5) C   2                  0.00056     1.25736   
    62. RY*(   6) C   2                  0.00033     1.23528   
    63. RY*(   7) C   2                  0.00021     0.93723   
    64. RY*(   8) C   2                  0.00012     2.01861   
    65. RY*(   9) C   2                  0.00007     0.87574   
    66. RY*(  10) C   2                  0.00007     3.61334   
    67. RY*(  11) C   2                  0.00005     1.82185   
    68. RY*(  12) C   2                  0.00003     1.66035   
    69. RY*(  13) C   2                  0.00002     1.89156   
    70. RY*(  14) C   2                  0.00002     1.81452   
    71. RY*(  15) C   2                  0.00000    20.23211   
    72. RY*(  16) C   2                  0.00000     2.66454   
    73. RY*(  17) C   2                  0.00001     1.90553   
    74. RY*(   1) C   3                  0.00473     1.17114   
    75. RY*(   2) C   3                  0.00462     0.80155   
    76. RY*(   3) C   3                  0.00252     1.25373   
    77. RY*(   4) C   3                  0.00212     1.10292   
    78. RY*(   5) C   3                  0.00138     0.69507   
    79. RY*(   6) C   3                  0.00043     0.92597   
    80. RY*(   7) C   3                  0.00029     2.05277   
    81. RY*(   8) C   3                  0.00016     2.82594   
    82. RY*(   9) C   3                  0.00012     2.43007   
    83. RY*(  10) C   3                  0.00010     1.74880   
    84. RY*(  11) C   3                  0.00008     1.89988   
    85. RY*(  12) C   3                  0.00004     1.43979   
    86. RY*(  13) C   3                  0.00005     1.51611   
    87. RY*(  14) C   3                  0.00001     1.40437   
    88. RY*(  15) C   3                  0.00001     2.70713   
    89. RY*(  16) C   3                  0.00001     1.99994   
    90. RY*(  17) C   3                  0.00000    19.95619   
    91. RY*(   1) N   4                  0.00471     0.97534   
    92. RY*(   2) N   4                  0.00313     1.21603   
    93. RY*(   3) N   4                  0.00172     1.12832   
    94. RY*(   4) N   4                  0.00147     1.01333   
    95. RY*(   5) N   4                  0.00133     1.04285   
    96. RY*(   6) N   4                  0.00072     1.32030   
    97. RY*(   7) N   4                  0.00047     1.82906   
    98. RY*(   8) N   4                  0.00032     1.11738   
    99. RY*(   9) N   4                  0.00025     1.40803   
   100. RY*(  10) N   4                  0.00015     2.35269   
   101. RY*(  11) N   4                  0.00011     2.28345   
   102. RY*(  12) N   4                  0.00005     3.36484   
   103. RY*(  13) N   4                  0.00002     1.89768   
   104. RY*(  14) N   4                  0.00001     4.14275   
   105. RY*(  15) N   4                  0.00002     3.54878   
   106. RY*(  16) N   4                  0.00000    34.59766   
   107. RY*(  17) N   4                  0.00000     3.71501   
   108. RY*(   1) H   5                  0.00311     1.34606   
   109. RY*(   2) H   5                  0.00022     1.60604   
   110. RY*(   3) H   5                  0.00015     2.19259   
   111. RY*(   4) H   5                  0.00011     1.84640   
   112. RY*(   5) H   5                  0.00006     1.94355   
   113. RY*(   1) H   6                  0.00035     1.36204   
   114. RY*(   2) H   6                  0.00021     1.72728   
   115. RY*(   3) H   6                  0.00022     1.55484   
   116. RY*(   4) H   6                  0.00004     2.51315   
   117. RY*(   5) H   6                  0.00004     1.55440   
   118. RY*(   1) H   7                  0.00056     1.43647   
   119. RY*(   2) H   7                  0.00026     1.52667   
   120. RY*(   3) H   7                  0.00015     1.29865   
   121. RY*(   4) H   7                  0.00005     2.63370   
   122. RY*(   5) H   7                  0.00005     1.77284   
   123. RY*(   1) N   8                  0.00252     1.71755   
   124. RY*(   2) N   8                  0.00223     0.65016   
   125. RY*(   3) N   8                  0.00145     1.32915   
   126. RY*(   4) N   8                  0.00077     1.13132   
   127. RY*(   5) N   8                  0.00075     2.03751   
   128. RY*(   6) N   8                  0.00045     1.77306   
   129. RY*(   7) N   8                  0.00032     1.87296   
   130. RY*(   8) N   8                  0.00021     1.24748   
   131. RY*(   9) N   8                  0.00008     2.31291   
   132. RY*(  10) N   8                  0.00006     1.22121   
   133. RY*(  11) N   8                  0.00005     2.05956   
   134. RY*(  12) N   8                  0.00002     1.62099   
   135. RY*(  13) N   8                  0.00002     1.79204   
   136. RY*(  14) N   8                  0.00001     3.44031   
   137. RY*(  15) N   8                  0.00002     4.33079   
   138. RY*(  16) N   8                  0.00000    34.80502   
   139. RY*(  17) N   8                  0.00000     3.74001   
   140. RY*(   1) C   9                  0.00524     0.74760   
   141. RY*(   2) C   9                  0.00183     0.78051   
   142. RY*(   3) C   9                  0.00128     0.98494   
   143. RY*(   4) C   9                  0.00085     1.19226   
   144. RY*(   5) C   9                  0.00050     1.29812   
   145. RY*(   6) C   9                  0.00041     1.60197   
   146. RY*(   7) C   9                  0.00030     1.86093   
   147. RY*(   8) C   9                  0.00014     2.04323   
   148. RY*(   9) C   9                  0.00010     1.38111   
   149. RY*(  10) C   9                  0.00007     1.26744   
   150. RY*(  11) C   9                  0.00004     1.52161   
   151. RY*(  12) C   9                  0.00001     1.95795   
   152. RY*(  13) C   9                  0.00001     2.32602   
   153. RY*(  14) C   9                  0.00001     2.55835   
   154. RY*(  15) C   9                  0.00001     1.42137   
   155. RY*(  16) C   9                  0.00001     1.43203   
   156. RY*(  17) C   9                  0.00000    22.78669   
   157. RY*(   1) C  10                  0.00160     0.64650   
   158. RY*(   2) C  10                  0.00106     0.73253   
   159. RY*(   3) C  10                  0.00048     1.40323   
   160. RY*(   4) C  10                  0.00028     0.84607   
   161. RY*(   5) C  10                  0.00009     0.65928   
   162. RY*(   6) C  10                  0.00008     1.44587   
   163. RY*(   7) C  10                  0.00006     1.17783   
   164. RY*(   8) C  10                  0.00003     1.69239   
   165. RY*(   9) C  10                  0.00004     1.53172   
   166. RY*(  10) C  10                  0.00001     2.85875   
   167. RY*(  11) C  10                  0.00001     1.53005   
   168. RY*(  12) C  10                  0.00000    22.80623   
   169. RY*(  13) C  10                  0.00001     1.42539   
   170. RY*(  14) C  10                  0.00001     1.75179   
   171. RY*(  15) C  10                  0.00001     2.93690   
   172. RY*(  16) C  10                  0.00000     1.88906   
   173. RY*(  17) C  10                  0.00000     1.53203   
   174. RY*(   1) H  11                  0.00218     1.10527   
   175. RY*(   2) H  11                  0.00025     1.69511   
   176. RY*(   3) H  11                  0.00011     1.92472   
   177. RY*(   4) H  11                  0.00009     1.90631   
   178. RY*(   5) H  11                  0.00004     2.45740   
   179. RY*(   1) H  12                  0.00109     0.83313   
   180. RY*(   2) H  12                  0.00016     1.77118   
   181. RY*(   3) H  12                  0.00014     1.95284   
   182. RY*(   4) H  12                  0.00009     1.66855   
   183. RY*(   5) H  12                  0.00004     2.69535   
   184. RY*(   1) H  13                  0.00052     0.97236   
   185. RY*(   2) H  13                  0.00014     1.59039   
   186. RY*(   3) H  13                  0.00010     1.83708   
   187. RY*(   4) H  13                  0.00007     1.99867   
   188. RY*(   5) H  13                  0.00002     2.56881   
   189. RY*(   1) H  14                  0.00113     0.88326   
   190. RY*(   2) H  14                  0.00014     1.84784   
   191. RY*(   3) H  14                  0.00011     1.79349   
   192. RY*(   4) H  14                  0.00008     1.80388   
   193. RY*(   5) H  14                  0.00003     2.68287   
   194. RY*(   1) H  15                  0.00099     0.76511   
   195. RY*(   2) H  15                  0.00017     1.87413   
   196. RY*(   3) H  15                  0.00013     1.77389   
   197. RY*(   4) H  15                  0.00008     1.77111   
   198. RY*(   5) H  15                  0.00003     2.68939   
   199. RY*(   1) C  16                  0.00270     0.69889   
   200. RY*(   2) C  16                  0.00140     0.84899   
   201. RY*(   3) C  16                  0.00066     0.97612   
   202. RY*(   4) C  16                  0.00021     1.29662   
   203. RY*(   5) C  16                  0.00020     0.45814   
   204. RY*(   6) C  16                  0.00009     2.72211   
   205. RY*(   7) C  16                  0.00006     0.78178   
   206. RY*(   8) C  16                  0.00007     0.82981   
   207. RY*(   9) C  16                  0.00002     0.67703   
   208. RY*(  10) C  16                  0.00001     2.20411   
   209. RY*(  11) C  16                  0.00000    21.79757   
   210. RY*(  12) C  16                  0.00000     2.95054   
   211. RY*(  13) C  16                  0.00000     1.73322   
   212. RY*(  14) C  16                  0.00000     2.84530   
   213. RY*(  15) C  16                  0.00000     1.62482   
   214. RY*(  16) C  16                  0.00000     1.09600   
   215. RY*(  17) C  16                  0.00000     1.81720   
   216. RY*(   1) H  17                  0.00047     0.57176   
   217. RY*(   2) H  17                  0.00015     1.82285   
   218. RY*(   3) H  17                  0.00012     1.77969   
   219. RY*(   4) H  17                  0.00007     1.99948   
   220. RY*(   5) H  17                  0.00004     2.43009   
   221. RY*(   1) H  18                  0.00046     0.58484   
   222. RY*(   2) H  18                  0.00015     1.80498   
   223. RY*(   3) H  18                  0.00012     1.77897   
   224. RY*(   4) H  18                  0.00007     2.03876   
   225. RY*(   5) H  18                  0.00004     2.40793   
   226. RY*(   1) H  19                  0.00036     0.71675   
   227. RY*(   2) H  19                  0.00013     1.93681   
   228. RY*(   3) H  19                  0.00012     1.67158   
   229. RY*(   4) H  19                  0.00005     1.67011   
   230. RY*(   5) H  19                  0.00003     2.53592   
   252. BD*(   1) C   1 - C   2          0.01149     0.55205   
   253. BD*(   2) C   1 - C   2          0.22433    -0.01760  259(v),42(g),61(g)
   254. BD*(   1) C   1 - N   4          0.02255     0.39556   
   255. BD*(   1) C   1 - H   5          0.06771     0.41266   
   256. BD*(   1) C   2 - H   6          0.01008     0.37353   
   257. BD*(   1) C   2 - N   8          0.02317     0.37295   
   258. BD*(   1) C   3 - N   4          0.02149     0.43282   
   259. BD*(   2) C   3 - N   4          0.54974    -0.10360  253(v),75(g),264(v),94(g)
                                                    42(v),99(g)
   260. BD*(   1) C   3 - H   7          0.01224     0.32784   
   261. BD*(   1) C   3 - N   8          0.02002     0.41424   
   262. BD*(   1) N   4 - C   9          0.03293     0.27607   
   263. BD*(   1) N   8 - C  16          0.01615     0.25595   
   264. BD*(   1) C   9 - C  10          0.00784     0.37143   
   265. BD*(   1) C   9 - H  11          0.02715     0.40552   
   266. BD*(   1) C   9 - H  12          0.01509     0.36131   
   267. BD*(   1) C  10 - H  13          0.00412     0.39531   
   268. BD*(   1) C  10 - H  14          0.00917     0.41598   
   269. BD*(   1) C  10 - H  15          0.00793     0.38184   
   270. BD*(   1) C  16 - H  17          0.00926     0.32243   
   271. BD*(   1) C  16 - H  18          0.00985     0.32258   
   272. BD*(   1) C  16 - H  19          0.00291     0.31877   
       -------------------------------
              Total Lewis   58.90739  ( 97.9948%)
        Valence non-Lewis    1.10522  (  1.8386%)
        Rydberg non-Lewis    0.10015  (  0.1666%)
       -------------------------------
            Total unit  1   60.11276  (100.0000%)
           Charge unit  1    0.88724

 Molecular unit  2  (Cl)
    30. CR (   1)Cl  20                  2.00000  -100.79379  255(r)
    31. CR (   2)Cl  20                  1.99998    -9.75293  255(r),265(r),108(r)
    32. CR (   3)Cl  20                  2.00000    -7.05016  255(r)
    33. CR (   4)Cl  20                  2.00000    -7.04988   
    34. CR (   5)Cl  20                  2.00000    -7.04993   
    36. LP (   1)Cl  20                  1.99898    -0.67561  255(r),265(r),108(r)
    37. LP (   2)Cl  20                  1.98916    -0.18258  268(r),253(r),269(r),266(r)
    38. LP (   3)Cl  20                  1.97469    -0.18227  265(r),255(r),266(r),140(r)
                                                    253(r),269(r),254(r),175(r)
    39. LP (   4)Cl  20                  1.92379    -0.25352  255(r),265(r),109(r),252(r)
                                                    266(r),41(r),268(r),108(r)
                                                    140(r),110(r)
   231. RY*(   1)Cl  20                  0.00023     0.93488   
   232. RY*(   2)Cl  20                  0.00017     0.73328   
   233. RY*(   3)Cl  20                  0.00011     0.71025   
   234. RY*(   4)Cl  20                  0.00006     0.51172   
   235. RY*(   5)Cl  20                  0.00002     0.73976   
   236. RY*(   6)Cl  20                  0.00001     0.97695   
   237. RY*(   7)Cl  20                  0.00000     5.10811   
   238. RY*(   8)Cl  20                  0.00000    23.24197   
   239. RY*(   9)Cl  20                  0.00000    17.45655   
   240. RY*(  10)Cl  20                  0.00001     0.65492   
   241. RY*(  11)Cl  20                  0.00000     4.88495   
   242. RY*(  12)Cl  20                  0.00000    23.24753   
   243. RY*(  13)Cl  20                  0.00000   207.29870   
   244. RY*(  14)Cl  20                  0.00000     0.60949   
   245. RY*(  15)Cl  20                  0.00000     5.04302   
   246. RY*(  16)Cl  20                  0.00000    23.25341   
   247. RY*(  17)Cl  20                  0.00001     0.66964   
   248. RY*(  18)Cl  20                  0.00000     0.95048   
   249. RY*(  19)Cl  20                  0.00001     0.92395   
   250. RY*(  20)Cl  20                  0.00001     1.07885   
   251. RY*(  21)Cl  20                  0.00000     0.98803   
       -------------------------------
              Total Lewis   17.88660  ( 99.9965%)
        Valence non-Lewis    0.00000  (  0.0000%)
        Rydberg non-Lewis    0.00063  (  0.0035%)
       -------------------------------
            Total unit  2   17.88723  (100.0000%)
           Charge unit  2   -0.88723
 1\1\GINC-CX1-9-16-2\SP\RB3LYP\6-311+G(d,p)\C6H11Cl1N2\CJS14\20-Apr-201
 5\0\\# pop(nbo,full) GFInput b3lyp/6-311+g(d,p) geom=checkpoint integr
 al=grid=ultrafine scf=conver=9 empiricaldispersion=gd3bj\\Emim+ (optim
 ised with b3lyp+gd3bj / aug-cc-pvtz) and Cl- in the back-ethyl positio
 n created on; Thu Apr 16 19:11:51 BST 2015, from; CJS1_emim-cl_BE_init
 .com created on; Fri Apr 17 20:54:15 BST 2015, from; CJS1_emim-cl_BE_6
 -311+g-d-p-_gd3bj_opt-modredundant_difrz.com created on; Mon Apr 20 15
 :19:44 BST 2015, from; CJS1_emim-cl_BE_6-311+g-d-p-_gd3bj_opt-modredun
 dant_unfrz.com\\0,1\C,0,-0.2705640024,1.6928588793,-0.1083449253\C,0,-
 1.6112168417,1.6223541194,0.129226809\C,0,-0.8672736725,-0.442837869,-
 0.1246420064\N,0,0.1654222864,0.3887099753,-0.2659138963\H,0,0.4612155
 606,2.50882011,-0.225310072\H,0,-2.3366379928,2.399455158,0.2954581492
 \H,0,-0.8278770326,-1.5161274789,-0.1935124044\N,0,-1.9692745676,0.282
 3979701,0.1156915103\C,0,1.5722308867,-0.0144178738,-0.5034812028\C,0,
 2.3661136557,-0.0411846557,0.7946249538\H,0,1.9944327125,0.7406015414,
 -1.1720311992\H,0,1.5368022849,-0.9900275588,-0.992779523\H,0,3.382306
 9239,-0.3774616447,0.5792105942\H,0,2.4356815276,0.9698142161,1.198625
 3168\H,0,1.9221715036,-0.7177081473,1.5312738487\C,0,-3.3165006253,-0.
 2455856113,0.3104538031\H,0,-3.7002272447,0.0748562034,1.2791325471\H,
 0,-3.9734708814,0.1136679261,-0.4821099818\H,0,-3.2813915134,-1.333158
 6432,0.2818305365\Cl,0,2.4145665625,3.1800963534,-0.8027039176\\Versio
 n=ES64L-G09RevD.01\State=1-A\HF=-805.10526\RMSD=1.515e-10\Dipole=-4.65
 30831,-4.2169706,1.1013305\Quadrupole=4.5559117,-4.6885054,0.1325937,-
 11.451662,2.2157184,4.6366117\PG=C01 [X(C6H11Cl1N2)]\\@


 The earth never tires,
 The earth is rude, silent, incomprehensible at first,
 Nature is rude and incomprehensible at first,
 Be not discouraged, keep on,
 There are divine things well envelop'd,
 I swear to you there are divine things more beautiful than words can tell.
                                 -- Walt Whitman
 Job cpu time:       0 days  0 hours  7 minutes 17.1 seconds.
 File lengths (MBytes):  RWF=     29 Int=      0 D2E=      0 Chk=      6 Scr=      1
 Normal termination of Gaussian 09 at Mon Apr 20 15:26:24 2015.
