 Entering Gaussian System, Link 0=g09
 Input=/work/cjs14/CJS1_emim-cl_B_6-311+g-d-p-_gd3bj_opt-modredundant_difrz_err.com
 Output=/work/cjs14/CJS1_emim-cl_B_6-311+g-d-p-_gd3bj_opt-modredundant_difrz_err.log
 Initial command:
 /apps/gaussian/g09_d01/g09/l1.exe /tmp/pbs.9401975.cx1b/Gau-7255.inp -scrdir=/tmp/pbs.9401975.cx1b/
 Entering Link 1 = /apps/gaussian/g09_d01/g09/l1.exe PID=      7256.
  
 Copyright (c) 1988,1990,1992,1993,1995,1998,2003,2009,2013,
            Gaussian, Inc.  All Rights Reserved.
  
 This is part of the Gaussian(R) 09 program.  It is based on
 the Gaussian(R) 03 system (copyright 2003, Gaussian, Inc.),
 the Gaussian(R) 98 system (copyright 1998, Gaussian, Inc.),
 the Gaussian(R) 94 system (copyright 1995, Gaussian, Inc.),
 the Gaussian 92(TM) system (copyright 1992, Gaussian, Inc.),
 the Gaussian 90(TM) system (copyright 1990, Gaussian, Inc.),
 the Gaussian 88(TM) system (copyright 1988, Gaussian, Inc.),
 the Gaussian 86(TM) system (copyright 1986, Carnegie Mellon
 University), and the Gaussian 82(TM) system (copyright 1983,
 Carnegie Mellon University). Gaussian is a federally registered
 trademark of Gaussian, Inc.
  
 This software contains proprietary and confidential information,
 including trade secrets, belonging to Gaussian, Inc.
  
 This software is provided under written license and may be
 used, copied, transmitted, or stored only in accord with that
 written license.
  
 The following legend is applicable only to US Government
 contracts under FAR:
  
                    RESTRICTED RIGHTS LEGEND
  
 Use, reproduction and disclosure by the US Government is
 subject to restrictions as set forth in subparagraphs (a)
 and (c) of the Commercial Computer Software - Restricted
 Rights clause in FAR 52.227-19.
  
 Gaussian, Inc.
 340 Quinnipiac St., Bldg. 40, Wallingford CT 06492
  
  
 ---------------------------------------------------------------
 Warning -- This program may not be used in any manner that
 competes with the business of Gaussian, Inc. or will provide
 assistance to any competitor of Gaussian, Inc.  The licensee
 of this program is prohibited from giving any competitor of
 Gaussian, Inc. access to this program.  By using this program,
 the user acknowledges that Gaussian, Inc. is engaged in the
 business of creating and licensing software in the field of
 computational chemistry and represents and warrants to the
 licensee that it is not a competitor of Gaussian, Inc. and that
 it will not use this program in any manner prohibited above.
 ---------------------------------------------------------------
  

 Cite this work as:
 Gaussian 09, Revision D.01,
 M. J. Frisch, G. W. Trucks, H. B. Schlegel, G. E. Scuseria, 
 M. A. Robb, J. R. Cheeseman, G. Scalmani, V. Barone, B. Mennucci, 
 G. A. Petersson, H. Nakatsuji, M. Caricato, X. Li, H. P. Hratchian, 
 A. F. Izmaylov, J. Bloino, G. Zheng, J. L. Sonnenberg, M. Hada, 
 M. Ehara, K. Toyota, R. Fukuda, J. Hasegawa, M. Ishida, T. Nakajima, 
 Y. Honda, O. Kitao, H. Nakai, T. Vreven, J. A. Montgomery, Jr., 
 J. E. Peralta, F. Ogliaro, M. Bearpark, J. J. Heyd, E. Brothers, 
 K. N. Kudin, V. N. Staroverov, T. Keith, R. Kobayashi, J. Normand, 
 K. Raghavachari, A. Rendell, J. C. Burant, S. S. Iyengar, J. Tomasi, 
 M. Cossi, N. Rega, J. M. Millam, M. Klene, J. E. Knox, J. B. Cross, 
 V. Bakken, C. Adamo, J. Jaramillo, R. Gomperts, R. E. Stratmann, 
 O. Yazyev, A. J. Austin, R. Cammi, C. Pomelli, J. W. Ochterski, 
 R. L. Martin, K. Morokuma, V. G. Zakrzewski, G. A. Voth, 
 P. Salvador, J. J. Dannenberg, S. Dapprich, A. D. Daniels, 
 O. Farkas, J. B. Foresman, J. V. Ortiz, J. Cioslowski, 
 and D. J. Fox, Gaussian, Inc., Wallingford CT, 2013.
 
 ******************************************
 Gaussian 09:  ES64L-G09RevD.01 24-Apr-2013
                17-Apr-2015 
 ******************************************
 %nprocshared=8
 Will use up to    8 processors via shared memory.
 %mem=15000MB
 %chk=CJS1_emim-cl_B_6-311+g-d-p-_gd3bj_opt-modredundant_difrz_err.chk
 ----------------------------------------------------------------------
 # opt=modredundant b3lyp/6-311+g(d,p) geom=(checkpoint,newdefinition) 
 integral=grid=ultrafine scf=conver=9 empiricaldispersion=gd3bj
 ----------------------------------------------------------------------
 1/14=-1,18=120,19=15,26=4,29=4002,38=1/1,3;
 2/9=110,12=2,40=1/2;
 3/5=4,6=6,7=111,11=2,14=-4,16=1,25=1,30=1,71=1,74=-5,75=-5,124=41/1,2,3;
 4//1;
 5/5=2,6=9,38=5/2;
 6/7=2,8=2,9=2,10=2,28=1/1;
 7//1,2,3,16;
 1/14=-1,18=20,19=15,26=4/3(2);
 2/9=110/2;
 99//99;
 2/9=110/2;
 3/5=4,6=6,7=111,11=2,14=-2,16=1,25=1,30=1,71=1,74=-5,75=-5,124=41/1,2,3;
 4/5=5,16=3,69=1/1;
 5/5=2,6=9,38=5/2;
 7//1,2,3,16;
 1/14=-1,18=20,19=15,26=4/3(-5);
 2/9=110/2;
 6/7=2,8=2,9=2,10=2,19=2,28=1/1;
 99/9=1/99;
 ----------------------------------------------------------------------
 Emim+ (optimised with b3lyp+gd3bj / aug-cc-pvtz) and Cl- in the back p
 osition created on; Thu Apr 16 19:11:52 BST 2015, from; CJS1_emim-cl_B
 _init.com
 ----------------------------------------------------------------------
 Structure from the checkpoint file:  "CJS1_emim-cl_B_6-311+g-d-p-_gd3bj_opt-modredundant_difrz_err.chk"
 Charge =  0 Multiplicity = 1
 Redundant internal coordinates found in file.
 C,0,-0.0181971868,0.5973154752,-0.0228617382
 C,0,-1.1758220798,1.2906716842,0.1505540085
 C,0,-1.7160015355,-0.8283261755,-0.1941055727
 N,0,-0.3912164102,-0.7159409545,-0.2455130438
 H,0,1.1093733639,0.8255265794,-0.0404761181
 H,0,-1.36258204,2.3369596319,0.3359680903
 H,0,-2.286654168,-1.7303261669,-0.3304529094
 N,0,-2.2230865185,0.391057217,0.0425122503
 C,0,0.5672473113,-1.8194768073,-0.4870518774
 C,0,1.5519751997,-1.9787268648,0.6636464608
 H,0,1.0929674242,-1.5812381235,-1.413466987
 H,0,-0.0319678089,-2.7176802269,-0.6487635697
 H,0,2.2185562209,-2.8149005977,0.4387173931
 H,0,2.1662661817,-1.0802259209,0.7716288428
 H,0,1.0297563587,-2.195687123,1.5989636841
 C,0,-3.6422102433,0.721316561,0.1331469589
 H,0,-3.8444453807,1.2089160498,1.0866153074
 H,0,-3.9193167065,1.3864106223,-0.684764368
 H,0,-4.2266815228,-0.1944159573,0.0677523908
 Cl,0,3.1148764579,1.231423774,-0.0718050378
 Recover connectivity data from disk.
 The following ModRedundant input section has been read:
 D      20       3       4       1 F                                           
 

 GradGradGradGradGradGradGradGradGradGradGradGradGradGradGradGradGradGrad
 Berny optimization.
 Initialization pass.
                           ----------------------------
                           !    Initial Parameters    !
                           ! (Angstroms and Degrees)  !
 --------------------------                            --------------------------
 ! Name  Definition              Value          Derivative Info.                !
 --------------------------------------------------------------------------------
 ! R1    R(1,2)                  1.3605         estimate D2E/DX2                !
 ! R2    R(1,4)                  1.3832         estimate D2E/DX2                !
 ! R3    R(1,5)                  1.1506         estimate D2E/DX2                !
 ! R4    R(2,6)                  1.0789         estimate D2E/DX2                !
 ! R5    R(2,8)                  1.3848         estimate D2E/DX2                !
 ! R6    R(3,4)                  1.3305         estimate D2E/DX2                !
 ! R7    R(3,7)                  1.076          estimate D2E/DX2                !
 ! R8    R(3,8)                  1.3416         estimate D2E/DX2                !
 ! R9    R(4,9)                  1.4815         estimate D2E/DX2                !
 ! R10   R(5,20)                 2.0464         estimate D2E/DX2                !
 ! R11   R(6,20)                 4.6299         estimate D2E/DX2                !
 ! R12   R(8,16)                 1.4599         estimate D2E/DX2                !
 ! R13   R(9,10)                 1.5229         estimate D2E/DX2                !
 ! R14   R(9,11)                 1.0915         estimate D2E/DX2                !
 ! R15   R(9,12)                 1.0918         estimate D2E/DX2                !
 ! R16   R(10,13)                1.0928         estimate D2E/DX2                !
 ! R17   R(10,14)                1.0938         estimate D2E/DX2                !
 ! R18   R(10,15)                1.093          estimate D2E/DX2                !
 ! R19   R(16,17)                1.0898         estimate D2E/DX2                !
 ! R20   R(16,18)                1.09           estimate D2E/DX2                !
 ! R21   R(16,19)                1.0883         estimate D2E/DX2                !
 ! A1    A(2,1,4)              105.9567         estimate D2E/DX2                !
 ! A2    A(2,1,5)              137.2863         estimate D2E/DX2                !
 ! A3    A(4,1,5)              116.7518         estimate D2E/DX2                !
 ! A4    A(1,2,6)              131.5632         estimate D2E/DX2                !
 ! A5    A(1,2,8)              107.6056         estimate D2E/DX2                !
 ! A6    A(6,2,8)              120.8304         estimate D2E/DX2                !
 ! A7    A(4,3,7)              126.4377         estimate D2E/DX2                !
 ! A8    A(4,3,8)              107.8405         estimate D2E/DX2                !
 ! A9    A(7,3,8)              125.7169         estimate D2E/DX2                !
 ! A10   A(1,4,3)              110.0279         estimate D2E/DX2                !
 ! A11   A(1,4,9)              123.985          estimate D2E/DX2                !
 ! A12   A(3,4,9)              125.9832         estimate D2E/DX2                !
 ! A13   A(2,6,20)              65.5367         estimate D2E/DX2                !
 ! A14   A(2,8,3)              108.5635         estimate D2E/DX2                !
 ! A15   A(2,8,16)             125.6854         estimate D2E/DX2                !
 ! A16   A(3,8,16)             125.7302         estimate D2E/DX2                !
 ! A17   A(4,9,10)             111.9034         estimate D2E/DX2                !
 ! A18   A(4,9,11)             106.7026         estimate D2E/DX2                !
 ! A19   A(4,9,12)             106.3727         estimate D2E/DX2                !
 ! A20   A(10,9,11)            110.6527         estimate D2E/DX2                !
 ! A21   A(10,9,12)            112.3822         estimate D2E/DX2                !
 ! A22   A(11,9,12)            108.5542         estimate D2E/DX2                !
 ! A23   A(9,10,13)            108.5981         estimate D2E/DX2                !
 ! A24   A(9,10,14)            110.601          estimate D2E/DX2                !
 ! A25   A(9,10,15)            111.003          estimate D2E/DX2                !
 ! A26   A(13,10,14)           107.8375         estimate D2E/DX2                !
 ! A27   A(13,10,15)           108.4034         estimate D2E/DX2                !
 ! A28   A(14,10,15)           110.2994         estimate D2E/DX2                !
 ! A29   A(8,16,17)            109.6282         estimate D2E/DX2                !
 ! A30   A(8,16,18)            109.7904         estimate D2E/DX2                !
 ! A31   A(8,16,19)            109.1456         estimate D2E/DX2                !
 ! A32   A(17,16,18)           109.6521         estimate D2E/DX2                !
 ! A33   A(17,16,19)           109.2303         estimate D2E/DX2                !
 ! A34   A(18,16,19)           109.3777         estimate D2E/DX2                !
 ! A35   A(5,20,6)              25.6138         estimate D2E/DX2                !
 ! A36   L(1,5,20,10,-1)       180.0            estimate D2E/DX2                !
 ! A37   L(1,5,20,10,-2)       180.0            estimate D2E/DX2                !
 ! D1    D(4,1,2,6)           -179.1672         estimate D2E/DX2                !
 ! D2    D(4,1,2,8)              0.5048         estimate D2E/DX2                !
 ! D3    D(5,1,2,6)             -0.0678         estimate D2E/DX2                !
 ! D4    D(5,1,2,8)            179.6042         estimate D2E/DX2                !
 ! D5    D(2,1,4,3)             -0.7725         estimate D2E/DX2                !
 ! D6    D(2,1,4,9)            179.9088         estimate D2E/DX2                !
 ! D7    D(5,1,4,3)            179.9116         estimate D2E/DX2                !
 ! D8    D(5,1,4,9)              0.5929         estimate D2E/DX2                !
 ! D9    D(2,1,20,6)             0.0274         estimate D2E/DX2                !
 ! D10   D(4,1,20,6)           179.0577         estimate D2E/DX2                !
 ! D11   D(1,2,6,20)             0.0349         estimate D2E/DX2                !
 ! D12   D(8,2,6,20)          -179.6011         estimate D2E/DX2                !
 ! D13   D(1,2,8,3)             -0.0789         estimate D2E/DX2                !
 ! D14   D(1,2,8,16)          -178.4884         estimate D2E/DX2                !
 ! D15   D(6,2,8,3)            179.6353         estimate D2E/DX2                !
 ! D16   D(6,2,8,16)             1.2258         estimate D2E/DX2                !
 ! D17   D(7,3,4,1)            179.9637         estimate D2E/DX2                !
 ! D18   D(7,3,4,9)             -0.7344         estimate D2E/DX2                !
 ! D19   D(8,3,4,1)              0.7326         estimate D2E/DX2                !
 ! D20   D(8,3,4,9)           -179.9655         estimate D2E/DX2                !
 ! D21   D(20,3,4,1)            -0.1508         Frozen                          !
 ! D22   D(4,3,8,2)             -0.4017         estimate D2E/DX2                !
 ! D23   D(4,3,8,16)           178.007          estimate D2E/DX2                !
 ! D24   D(7,3,8,2)           -179.6398         estimate D2E/DX2                !
 ! D25   D(7,3,8,16)            -1.2311         estimate D2E/DX2                !
 ! D26   D(1,4,9,10)            58.2142         estimate D2E/DX2                !
 ! D27   D(1,4,9,11)           -62.9528         estimate D2E/DX2                !
 ! D28   D(1,4,9,12)          -178.701          estimate D2E/DX2                !
 ! D29   D(3,4,9,10)          -120.9948         estimate D2E/DX2                !
 ! D30   D(3,4,9,11)           117.8383         estimate D2E/DX2                !
 ! D31   D(3,4,9,12)             2.0901         estimate D2E/DX2                !
 ! D32   D(2,6,20,5)            -0.0257         estimate D2E/DX2                !
 ! D33   D(2,8,16,17)          -57.1917         estimate D2E/DX2                !
 ! D34   D(2,8,16,18)           63.3257         estimate D2E/DX2                !
 ! D35   D(2,8,16,19)         -176.7939         estimate D2E/DX2                !
 ! D36   D(3,8,16,17)          124.6657         estimate D2E/DX2                !
 ! D37   D(3,8,16,18)         -114.8169         estimate D2E/DX2                !
 ! D38   D(3,8,16,19)            5.0635         estimate D2E/DX2                !
 ! D39   D(4,9,10,13)          178.9714         estimate D2E/DX2                !
 ! D40   D(4,9,10,14)          -62.8797         estimate D2E/DX2                !
 ! D41   D(4,9,10,15)           59.8936         estimate D2E/DX2                !
 ! D42   D(11,9,10,13)         -62.1741         estimate D2E/DX2                !
 ! D43   D(11,9,10,14)          55.9747         estimate D2E/DX2                !
 ! D44   D(11,9,10,15)         178.7481         estimate D2E/DX2                !
 ! D45   D(12,9,10,13)          59.3582         estimate D2E/DX2                !
 ! D46   D(12,9,10,14)         177.5071         estimate D2E/DX2                !
 ! D47   D(12,9,10,15)         -59.7195         estimate D2E/DX2                !
 --------------------------------------------------------------------------------
 Trust Radius=3.00D-01 FncErr=1.00D-07 GrdErr=1.00D-06
 Number of steps in this run=    115 maximum allowed number of steps=    120.
 GradGradGradGradGradGradGradGradGradGradGradGradGradGradGradGradGradGrad

                          Input orientation:                          
 ---------------------------------------------------------------------
 Center     Atomic      Atomic             Coordinates (Angstroms)
 Number     Number       Type             X           Y           Z
 ---------------------------------------------------------------------
      1          6           0       -0.018197    0.597315   -0.022862
      2          6           0       -1.175822    1.290672    0.150554
      3          6           0       -1.716002   -0.828326   -0.194106
      4          7           0       -0.391216   -0.715941   -0.245513
      5          1           0        1.109373    0.825527   -0.040476
      6          1           0       -1.362582    2.336960    0.335968
      7          1           0       -2.286654   -1.730326   -0.330453
      8          7           0       -2.223087    0.391057    0.042512
      9          6           0        0.567247   -1.819477   -0.487052
     10          6           0        1.551975   -1.978727    0.663646
     11          1           0        1.092967   -1.581238   -1.413467
     12          1           0       -0.031968   -2.717680   -0.648764
     13          1           0        2.218556   -2.814901    0.438717
     14          1           0        2.166266   -1.080226    0.771629
     15          1           0        1.029756   -2.195687    1.598964
     16          6           0       -3.642210    0.721317    0.133147
     17          1           0       -3.844445    1.208916    1.086615
     18          1           0       -3.919317    1.386411   -0.684764
     19          1           0       -4.226682   -0.194416    0.067752
     20         17           0        3.114876    1.231424   -0.071805
 ---------------------------------------------------------------------
                    Distance matrix (angstroms):
                    1          2          3          4          5
     1  C    0.000000
     2  C    1.360482   0.000000
     3  C    2.223582   2.213761   0.000000
     4  N    1.383242   2.190655   1.330537   0.000000
     5  H    1.150568   2.339866   3.277434   2.161003   0.000000
     6  H    2.227665   1.078877   3.228764   3.256052   2.921764
     7  H    3.264724   3.254496   1.076029   2.151482   4.260220
     8  N    2.215480   1.384826   1.341648   2.159665   3.361687
     9  C    2.529645   3.621858   2.506277   1.481481   2.736672
    10  C    3.093983   4.288719   3.569150   2.489416   2.924982
    11  H    2.813284   3.980130   3.153415   2.077416   2.770900
    12  H    3.373594   4.244313   2.571447   2.073314   3.771868
    13  H    4.106013   5.334845   4.452829   3.418291   3.835704
    14  H    2.866573   4.144447   4.008503   2.776328   2.325603
    15  H    3.395495   4.372318   3.553021   2.758787   3.438289
    16  C    3.629488   2.531312   2.493746   3.574640   4.755896
    17  H    4.030530   2.829213   3.212612   4.171862   5.094864
    18  H    4.034789   2.869440   3.162341   4.130413   5.100728
    19  H    4.283269   3.394125   2.602677   3.883416   5.433735
    20  Cl   3.196973   4.296865   5.253086   4.014361   2.046406
                    6          7          8          9         10
     6  H    0.000000
     7  H    4.223842   0.000000
     8  N    2.147818   2.154858   0.000000
     9  C    4.655917   2.859585   3.599008   0.000000
    10  C    5.217966   3.973036   4.500308   1.522878   0.000000
    11  H    4.943938   3.552040   4.123838   1.091506   2.164044
    12  H    5.318798   2.481894   3.865632   1.091778   2.185714
    13  H    6.275091   4.697323   5.492116   2.138864   1.092753
    14  H    4.931504   4.633111   4.686438   2.165094   1.093763
    15  H    5.278572   3.864943   4.437879   2.169541   1.092979
    16  C    2.801454   2.839544   1.459862   4.955786   5.878029
    17  H    2.827649   3.615790   2.094719   5.577690   6.281825
    18  H    2.912444   3.536265   2.096868   5.517795   6.563337
    19  H    3.831823   2.506251   2.087537   5.092189   6.077148
    20  Cl   4.629916   6.165663   5.404917   3.996353   3.645355
                   11         12         13         14         15
    11  H    0.000000
    12  H    1.772499   0.000000
    13  H    2.493885   2.501385   0.000000
    14  H    2.485483   3.087232   1.767105   0.000000
    15  H    3.075107   2.540081   1.772806   1.794545   0.000000
    16  C    5.487776   5.046973   6.851773   6.114868   5.699544
    17  H    6.197856   5.741488   7.305536   6.439568   5.967551
    18  H    5.870344   5.652994   7.522414   6.726046   6.522282
    19  H    5.693501   4.947310   6.967470   6.492294   5.829222
    20  Cl   3.714733   5.082414   4.175735   2.637227   4.345605
                   16         17         18         19         20
    16  C    0.000000
    17  H    1.089841   0.000000
    18  H    1.090008   1.781824   0.000000
    19  H    1.088324   1.775817   1.777573   0.000000
    20  Cl   6.779413   7.055112   7.062550   7.480038   0.000000
 Stoichiometry    C6H11ClN2
 Framework group  C1[X(C6H11ClN2)]
 Deg. of freedom    54
 Full point group                 C1      NOp   1
 Largest Abelian subgroup         C1      NOp   1
 Largest concise Abelian subgroup C1      NOp   1
                         Standard orientation:                         
 ---------------------------------------------------------------------
 Center     Atomic      Atomic             Coordinates (Angstroms)
 Number     Number       Type             X           Y           Z
 ---------------------------------------------------------------------
      1          6           0       -0.018197    0.597315   -0.022862
      2          6           0       -1.175822    1.290672    0.150554
      3          6           0       -1.716002   -0.828326   -0.194106
      4          7           0       -0.391216   -0.715941   -0.245513
      5          1           0        1.109373    0.825527   -0.040476
      6          1           0       -1.362582    2.336960    0.335968
      7          1           0       -2.286654   -1.730326   -0.330453
      8          7           0       -2.223087    0.391057    0.042512
      9          6           0        0.567247   -1.819477   -0.487052
     10          6           0        1.551975   -1.978727    0.663646
     11          1           0        1.092967   -1.581238   -1.413467
     12          1           0       -0.031968   -2.717680   -0.648764
     13          1           0        2.218556   -2.814901    0.438717
     14          1           0        2.166266   -1.080226    0.771629
     15          1           0        1.029756   -2.195687    1.598964
     16          6           0       -3.642210    0.721317    0.133147
     17          1           0       -3.844445    1.208916    1.086615
     18          1           0       -3.919317    1.386411   -0.684764
     19          1           0       -4.226682   -0.194416    0.067752
     20         17           0        3.114876    1.231424   -0.071805
 ---------------------------------------------------------------------
 Rotational constants (GHZ):      2.0988423      0.6817557      0.5339705
 Standard basis: 6-311+G(d,p) (5D, 7F)
 There are   281 symmetry adapted cartesian basis functions of A   symmetry.
 There are   272 symmetry adapted basis functions of A   symmetry.
   272 basis functions,   429 primitive gaussians,   281 cartesian basis functions
    39 alpha electrons       39 beta electrons
       nuclear repulsion energy       507.5002583708 Hartrees.
 NAtoms=   20 NActive=   20 NUniq=   20 SFac= 1.00D+00 NAtFMM=   60 NAOKFM=F Big=F
 Integral buffers will be    131072 words long.
 Raffenetti 2 integral format.
 Two-electron integral symmetry is turned on.
 Nuclear repulsion after empirical dispersion term =      507.4685818454 Hartrees.
 One-electron integrals computed using PRISM.
 NBasis=   272 RedAO= T EigKep=  1.03D-05  NBF=   272
 NBsUse=   272 1.00D-06 EigRej= -1.00D+00 NBFU=   272
 ExpMin= 4.38D-02 ExpMax= 1.06D+05 ExpMxC= 3.62D+03 IAcc=3 IRadAn=         5 AccDes= 0.00D+00
 Harris functional with IExCor=  402 and IRadAn=       5 diagonalized for initial guess.
 HarFok:  IExCor=  402 AccDes= 0.00D+00 IRadAn=         5 IDoV= 1 UseB2=F ITyADJ=14
 ICtDFT=  3500011 ScaDFX=  1.000000  1.000000  1.000000  1.000000
 FoFCou: FMM=F IPFlag=           0 FMFlag=      100000 FMFlg1=           0
         NFxFlg=           0 DoJE=T BraDBF=F KetDBF=T FulRan=T
         wScrn=  0.000000 ICntrl=     500 IOpCl=  0 I1Cent=   200000004 NGrid=           0
         NMat0=    1 NMatS0=      1 NMatT0=    0 NMatD0=    1 NMtDS0=    0 NMtDT0=    0
 Petite list used in FoFCou.
 Keep R1 ints in memory in canonical form, NReq=700735283.
 Requested convergence on RMS density matrix=1.00D-09 within 128 cycles.
 Requested convergence on MAX density matrix=1.00D-07.
 Requested convergence on             energy=1.00D-07.
 No special actions if energy rises.
 SCF Done:  E(RB3LYP) =  -805.099960970     A.U. after   16 cycles
            NFock= 16  Conv=0.32D-09     -V/T= 2.0034

 **********************************************************************

            Population analysis using the SCF density.

 **********************************************************************

 Orbital symmetries:
       Occupied  (A) (A) (A) (A) (A) (A) (A) (A) (A) (A) (A) (A)
                 (A) (A) (A) (A) (A) (A) (A) (A) (A) (A) (A) (A)
                 (A) (A) (A) (A) (A) (A) (A) (A) (A) (A) (A) (A)
                 (A) (A) (A)
       Virtual   (A) (A) (A) (A) (A) (A) (A) (A) (A) (A) (A) (A)
                 (A) (A) (A) (A) (A) (A) (A) (A) (A) (A) (A) (A)
                 (A) (A) (A) (A) (A) (A) (A) (A) (A) (A) (A) (A)
                 (A) (A) (A) (A) (A) (A) (A) (A) (A) (A) (A) (A)
                 (A) (A) (A) (A) (A) (A) (A) (A) (A) (A) (A) (A)
                 (A) (A) (A) (A) (A) (A) (A) (A) (A) (A) (A) (A)
                 (A) (A) (A) (A) (A) (A) (A) (A) (A) (A) (A) (A)
                 (A) (A) (A) (A) (A) (A) (A) (A) (A) (A) (A) (A)
                 (A) (A) (A) (A) (A) (A) (A) (A) (A) (A) (A) (A)
                 (A) (A) (A) (A) (A) (A) (A) (A) (A) (A) (A) (A)
                 (A) (A) (A) (A) (A) (A) (A) (A) (A) (A) (A) (A)
                 (A) (A) (A) (A) (A) (A) (A) (A) (A) (A) (A) (A)
                 (A) (A) (A) (A) (A) (A) (A) (A) (A) (A) (A) (A)
                 (A) (A) (A) (A) (A) (A) (A) (A) (A) (A) (A) (A)
                 (A) (A) (A) (A) (A) (A) (A) (A) (A) (A) (A) (A)
                 (A) (A) (A) (A) (A) (A) (A) (A) (A) (A) (A) (A)
                 (A) (A) (A) (A) (A) (A) (A) (A) (A) (A) (A) (A)
                 (A) (A) (A) (A) (A) (A) (A) (A) (A) (A) (A) (A)
                 (A) (A) (A) (A) (A) (A) (A) (A) (A) (A) (A) (A)
                 (A) (A) (A) (A) (A)
 The electronic state is 1-A.
 Alpha  occ. eigenvalues -- -101.37717 -14.45213 -14.43739 -10.31263 -10.27882
 Alpha  occ. eigenvalues --  -10.25579 -10.25070 -10.23708 -10.17185  -9.29086
 Alpha  occ. eigenvalues --   -7.04959  -7.04880  -7.04879  -1.11474  -0.99794
 Alpha  occ. eigenvalues --   -0.84433  -0.81577  -0.77273  -0.69459  -0.66859
 Alpha  occ. eigenvalues --   -0.64492  -0.63611  -0.59673  -0.54979  -0.52650
 Alpha  occ. eigenvalues --   -0.52294  -0.50534  -0.48389  -0.47832  -0.46177
 Alpha  occ. eigenvalues --   -0.44867  -0.42141  -0.39515  -0.37727  -0.34430
 Alpha  occ. eigenvalues --   -0.30170  -0.18382  -0.17817  -0.17740
 Alpha virt. eigenvalues --   -0.06953  -0.03997  -0.02108  -0.01814  -0.00260
 Alpha virt. eigenvalues --    0.00363   0.01174   0.01339   0.02586   0.03548
 Alpha virt. eigenvalues --    0.04314   0.05554   0.05973   0.06363   0.07202
 Alpha virt. eigenvalues --    0.08050   0.09185   0.09337   0.09610   0.10505
 Alpha virt. eigenvalues --    0.11194   0.11767   0.12402   0.13097   0.13551
 Alpha virt. eigenvalues --    0.13957   0.14758   0.15319   0.16002   0.16119
 Alpha virt. eigenvalues --    0.16733   0.16980   0.17664   0.18082   0.18185
 Alpha virt. eigenvalues --    0.19522   0.19661   0.19800   0.20210   0.21485
 Alpha virt. eigenvalues --    0.21560   0.22721   0.23431   0.23759   0.24929
 Alpha virt. eigenvalues --    0.25137   0.25351   0.26882   0.27864   0.28838
 Alpha virt. eigenvalues --    0.29959   0.31258   0.34251   0.36154   0.36914
 Alpha virt. eigenvalues --    0.37927   0.38389   0.39790   0.41495   0.42387
 Alpha virt. eigenvalues --    0.44723   0.46964   0.47519   0.48243   0.50815
 Alpha virt. eigenvalues --    0.52421   0.53509   0.53771   0.53884   0.55228
 Alpha virt. eigenvalues --    0.56604   0.58129   0.58541   0.59033   0.60227
 Alpha virt. eigenvalues --    0.62306   0.62524   0.63944   0.64605   0.65713
 Alpha virt. eigenvalues --    0.66412   0.67203   0.67831   0.70134   0.70630
 Alpha virt. eigenvalues --    0.71702   0.74475   0.77324   0.77825   0.80080
 Alpha virt. eigenvalues --    0.81288   0.84872   0.86195   0.89030   0.90300
 Alpha virt. eigenvalues --    0.93035   0.93385   0.94608   0.98072   1.00634
 Alpha virt. eigenvalues --    1.02396   1.02634   1.03297   1.04538   1.05334
 Alpha virt. eigenvalues --    1.06413   1.07368   1.08922   1.12405   1.15173
 Alpha virt. eigenvalues --    1.20912   1.22084   1.23039   1.26440   1.28548
 Alpha virt. eigenvalues --    1.31579   1.35385   1.37400   1.38954   1.40521
 Alpha virt. eigenvalues --    1.43835   1.46311   1.47603   1.47821   1.50799
 Alpha virt. eigenvalues --    1.52492   1.53425   1.55244   1.56277   1.57311
 Alpha virt. eigenvalues --    1.58299   1.59019   1.59766   1.62025   1.63014
 Alpha virt. eigenvalues --    1.65101   1.67906   1.69119   1.73955   1.74788
 Alpha virt. eigenvalues --    1.74942   1.76270   1.77027   1.78400   1.82850
 Alpha virt. eigenvalues --    1.83265   1.91016   1.93261   1.96001   1.99203
 Alpha virt. eigenvalues --    1.99835   2.04106   2.05306   2.07253   2.10879
 Alpha virt. eigenvalues --    2.12545   2.16687   2.18172   2.21425   2.24227
 Alpha virt. eigenvalues --    2.29565   2.30038   2.31724   2.36676   2.39872
 Alpha virt. eigenvalues --    2.40326   2.41375   2.42184   2.43504   2.45431
 Alpha virt. eigenvalues --    2.45885   2.48093   2.49571   2.50109   2.50757
 Alpha virt. eigenvalues --    2.53080   2.56224   2.56598   2.57937   2.58850
 Alpha virt. eigenvalues --    2.60241   2.60769   2.62727   2.65700   2.69030
 Alpha virt. eigenvalues --    2.72474   2.74054   2.75748   2.77467   2.81169
 Alpha virt. eigenvalues --    2.82439   2.86784   2.88508   2.91506   2.92422
 Alpha virt. eigenvalues --    2.94900   2.96649   3.07895   3.17716   3.26395
 Alpha virt. eigenvalues --    3.37187   3.52719   3.54783   3.61473   3.67168
 Alpha virt. eigenvalues --    3.68074   3.70270   3.73181   3.78460   3.81802
 Alpha virt. eigenvalues --    3.82661   3.86238   3.87023   3.89810   4.05182
 Alpha virt. eigenvalues --    4.19837   4.68077   4.88731   4.91521   5.21788
 Alpha virt. eigenvalues --    9.88254  23.68260  23.82190  23.84817  23.86974
 Alpha virt. eigenvalues --   23.96926  24.14969  25.96334  26.03681  26.24158
 Alpha virt. eigenvalues --   35.40837  35.56377 215.87158
          Condensed to atoms (all electrons):
               1          2          3          4          5          6
     1  C    7.495821  -1.523977   0.065687  -0.323301   0.242663  -0.053971
     2  C   -1.523977   7.219811  -0.238953   0.528326  -0.056772   0.475393
     3  C    0.065687  -0.238953   5.212196   0.386080  -0.020865   0.012490
     4  N   -0.323301   0.528326   0.386080   7.132567  -0.118609   0.032360
     5  H    0.242663  -0.056772  -0.020865  -0.118609   0.587437  -0.004005
     6  H   -0.053971   0.475393   0.012490   0.032360  -0.004005   0.474030
     7  H    0.029649  -0.010183   0.428416  -0.033072   0.000257  -0.000054
     8  N    0.457431  -0.171412   0.462101  -0.547719   0.028150  -0.086544
     9  C   -0.013353  -0.047787  -0.109250   0.118727  -0.011144   0.001806
    10  C   -0.220842   0.175208  -0.032900  -0.028218  -0.013781  -0.000692
    11  H   -0.016869  -0.000404  -0.022775  -0.028056  -0.002444   0.000007
    12  H    0.007810  -0.006084   0.036038  -0.074141  -0.000118   0.000024
    13  H    0.006316   0.002357   0.002000   0.019705   0.000161  -0.000002
    14  H    0.032079  -0.022278  -0.001125  -0.028804   0.003331   0.000033
    15  H   -0.011459  -0.009916   0.001907   0.008607  -0.000633   0.000007
    16  C    0.058328  -0.153003  -0.120046  -0.051498   0.008959  -0.016016
    17  H    0.022977  -0.022857  -0.017112  -0.007917  -0.000033  -0.000275
    18  H    0.008912  -0.010962  -0.019885  -0.005799  -0.000049  -0.000369
    19  H   -0.010842   0.011141   0.028774   0.009899  -0.000033   0.000016
    20  Cl  -0.167988   0.054282  -0.010822  -0.012843   0.214611  -0.000640
               7          8          9         10         11         12
     1  C    0.029649   0.457431  -0.013353  -0.220842  -0.016869   0.007810
     2  C   -0.010183  -0.171412  -0.047787   0.175208  -0.000404  -0.006084
     3  C    0.428416   0.462101  -0.109250  -0.032900  -0.022775   0.036038
     4  N   -0.033072  -0.547719   0.118727  -0.028218  -0.028056  -0.074141
     5  H    0.000257   0.028150  -0.011144  -0.013781  -0.002444  -0.000118
     6  H   -0.000054  -0.086544   0.001806  -0.000692   0.000007   0.000024
     7  H    0.477056  -0.045432  -0.006643   0.001431   0.000324   0.001334
     8  N   -0.045432   6.871425  -0.046906  -0.045222  -0.012854   0.018203
     9  C   -0.006643  -0.046906   5.788475  -0.332987   0.487100   0.345392
    10  C    0.001431  -0.045222  -0.332987   5.902494  -0.044397  -0.002653
    11  H    0.000324  -0.012854   0.487100  -0.044397   0.470902  -0.034087
    12  H    0.001334   0.018203   0.345392  -0.002653  -0.034087   0.583238
    13  H   -0.000032   0.000164  -0.072925   0.420507  -0.004538  -0.003953
    14  H    0.000007   0.003554   0.034123   0.335133  -0.007134   0.004363
    15  H    0.000095  -0.001537   0.005118   0.374991   0.005913  -0.008583
    16  C   -0.001735   0.267059  -0.014535  -0.000687  -0.001572   0.003783
    17  H   -0.000033  -0.031118  -0.001050  -0.000136  -0.000001   0.000001
    18  H   -0.000139  -0.031587  -0.000556  -0.000172  -0.000011   0.000005
    19  H    0.001198  -0.050779   0.002922  -0.000012  -0.000002   0.000043
    20  Cl   0.000148  -0.002471   0.096964  -0.120696  -0.004455  -0.000871
              13         14         15         16         17         18
     1  C    0.006316   0.032079  -0.011459   0.058328   0.022977   0.008912
     2  C    0.002357  -0.022278  -0.009916  -0.153003  -0.022857  -0.010962
     3  C    0.002000  -0.001125   0.001907  -0.120046  -0.017112  -0.019885
     4  N    0.019705  -0.028804   0.008607  -0.051498  -0.007917  -0.005799
     5  H    0.000161   0.003331  -0.000633   0.008959  -0.000033  -0.000049
     6  H   -0.000002   0.000033   0.000007  -0.016016  -0.000275  -0.000369
     7  H   -0.000032   0.000007   0.000095  -0.001735  -0.000033  -0.000139
     8  N    0.000164   0.003554  -0.001537   0.267059  -0.031118  -0.031587
     9  C   -0.072925   0.034123   0.005118  -0.014535  -0.001050  -0.000556
    10  C    0.420507   0.335133   0.374991  -0.000687  -0.000136  -0.000172
    11  H   -0.004538  -0.007134   0.005913  -0.001572  -0.000001  -0.000011
    12  H   -0.003953   0.004363  -0.008583   0.003783   0.000001   0.000005
    13  H    0.525193  -0.013272  -0.031227   0.000130   0.000000   0.000000
    14  H   -0.013272   0.430575  -0.021127   0.000199   0.000001   0.000001
    15  H   -0.031227  -0.021127   0.561024  -0.000813   0.000000   0.000001
    16  C    0.000130   0.000199  -0.000813   5.003809   0.425404   0.426779
    17  H    0.000000   0.000001   0.000000   0.425404   0.498397  -0.033598
    18  H    0.000000   0.000001   0.000001   0.426779  -0.033598   0.494912
    19  H    0.000000   0.000000   0.000001   0.378830  -0.021910  -0.022236
    20  Cl  -0.000948   0.037992   0.001890   0.002528   0.000006  -0.000007
              19         20
     1  C   -0.010842  -0.167988
     2  C    0.011141   0.054282
     3  C    0.028774  -0.010822
     4  N    0.009899  -0.012843
     5  H   -0.000033   0.214611
     6  H    0.000016  -0.000640
     7  H    0.001198   0.000148
     8  N   -0.050779  -0.002471
     9  C    0.002922   0.096964
    10  C   -0.000012  -0.120696
    11  H   -0.000002  -0.004455
    12  H    0.000043  -0.000871
    13  H    0.000000  -0.000948
    14  H    0.000000   0.037992
    15  H    0.000001   0.001890
    16  C    0.378830   0.002528
    17  H   -0.021910   0.000006
    18  H   -0.022236  -0.000007
    19  H    0.513937  -0.000015
    20  Cl  -0.000015  17.621689
 Mulliken charges:
               1
     1  C   -0.085070
     2  C   -0.191933
     3  C   -0.041957
     4  N    0.023708
     5  H    0.142917
     6  H    0.166401
     7  H    0.157405
     8  N   -0.034507
     9  C   -0.223492
    10  C   -0.366369
    11  H    0.215355
    12  H    0.130257
    13  H    0.150365
    14  H    0.212350
    15  H    0.125741
    16  C   -0.215902
    17  H    0.189255
    18  H    0.194761
    19  H    0.159069
    20  Cl  -0.708354
 Sum of Mulliken charges =   0.00000
 Mulliken charges with hydrogens summed into heavy atoms:
               1
     1  C    0.057848
     2  C   -0.025531
     3  C    0.115448
     4  N    0.023708
     8  N   -0.034507
     9  C    0.122120
    10  C    0.122086
    16  C    0.327182
    20  Cl  -0.708354
 Electronic spatial extent (au):  <R**2>=           2054.4599
 Charge=              0.0000 electrons
 Dipole moment (field-independent basis, Debye):
    X=            -16.0030    Y=             -5.4866    Z=             -0.0610  Tot=             16.9175
 Quadrupole moment (field-independent basis, Debye-Ang):
   XX=            -78.2516   YY=            -59.8965   ZZ=            -65.2266
   XY=            -18.2494   XZ=              0.3767   YZ=              2.5187
 Traceless Quadrupole moment (field-independent basis, Debye-Ang):
   XX=            -10.4600   YY=              7.8951   ZZ=              2.5650
   XY=            -18.2494   XZ=              0.3767   YZ=              2.5187
 Octapole moment (field-independent basis, Debye-Ang**2):
  XXX=           -201.3977  YYY=            -17.6436  ZZZ=             -0.4172  XYY=            -35.6873
  XXY=            -42.7782  XXZ=              4.5795  XZZ=             -8.6387  YZZ=             -3.8359
  YYZ=             -0.9398  XYZ=             -0.8263
 Hexadecapole moment (field-independent basis, Debye-Ang**3):
 XXXX=          -2132.0118 YYYY=           -675.5887 ZZZZ=           -134.6902 XXXY=           -193.7543
 XXXZ=              5.4572 YYYX=            -61.6933 YYYZ=             14.5980 ZZZX=             -3.2607
 ZZZY=              2.7112 XXYY=           -467.8920 XXZZ=           -362.2071 YYZZ=           -141.6379
 XXYZ=              9.5188 YYXZ=              0.3936 ZZXY=            -14.8666
 N-N= 5.074685818454D+02 E-N=-2.909258912366D+03  KE= 8.024036030228D+02
 Calling FoFJK, ICntrl=      2127 FMM=F ISym2X=0 I1Cent= 0 IOpClX= 0 NMat=1 NMatS=1 NMatT=0.
 ***** Axes restored to original set *****
 -------------------------------------------------------------------
 Center     Atomic                   Forces (Hartrees/Bohr)
 Number     Number              X              Y              Z
 -------------------------------------------------------------------
      1        6           0.022048631   -0.004431519   -0.003152035
      2        6          -0.001341039    0.004670646    0.000997393
      3        6          -0.002939609    0.002359889   -0.000692910
      4        7           0.003051347   -0.003375940    0.001286412
      5        1          -0.015435023    0.007656813    0.001775685
      6        1           0.002114784   -0.001648354   -0.000113527
      7        1          -0.000199914   -0.000009831    0.000109131
      8        7          -0.003264521   -0.002703401   -0.000447618
      9        6           0.000467313    0.001069875   -0.000301971
     10        6          -0.000556964   -0.001412160   -0.000074267
     11        1           0.000275157    0.000262407    0.000447764
     12        1           0.000043984   -0.000166635   -0.000025003
     13        1          -0.000122235    0.000191441    0.000076494
     14        1           0.000181959    0.000261515   -0.000189078
     15        1          -0.000100686    0.000222627    0.000210150
     16        6          -0.000001193    0.000112066    0.000579854
     17        1          -0.000158901   -0.000031871    0.000097774
     18        1          -0.000214379    0.000075331   -0.000176568
     19        1          -0.000208590    0.000029604    0.000003574
     20       17          -0.003640121   -0.003132502   -0.000411255
 -------------------------------------------------------------------
 Cartesian Forces:  Max     0.022048631 RMS     0.003939118

 GradGradGradGradGradGradGradGradGradGradGradGradGradGradGradGradGradGrad
 Berny optimization.
 FormGI is forming the generalized inverse of G from B-inverse, IUseBI=4.
 Internal  Forces:  Max     0.015572257 RMS     0.002093542
 Search for a local minimum.
 Step number   1 out of a maximum of  115
 All quantities printed in internal units (Hartrees-Bohrs-Radians)
 Mixed Optimization -- RFO/linear search
 Second derivative matrix not updated -- first step.
 ITU=  0
     Eigenvalues ---    0.00463   0.00614   0.00900   0.01037   0.01563
     Eigenvalues ---    0.01615   0.01783   0.01855   0.01982   0.02231
     Eigenvalues ---    0.02539   0.04268   0.04930   0.05271   0.05572
     Eigenvalues ---    0.05933   0.07558   0.07644   0.09448   0.09478
     Eigenvalues ---    0.12734   0.15998   0.16000   0.16000   0.16000
     Eigenvalues ---    0.16000   0.16000   0.16000   0.16600   0.21985
     Eigenvalues ---    0.22805   0.23393   0.24984   0.24997   0.26987
     Eigenvalues ---    0.30091   0.34381   0.34401   0.34471   0.34496
     Eigenvalues ---    0.34608   0.34639   0.34812   0.34831   0.35007
     Eigenvalues ---    0.35195   0.36478   0.36982   0.43033   0.43291
     Eigenvalues ---    0.48446   0.54704   0.571841000.000001000.00000
     Eigenvalues --- 1000.000001000.000001000.000001000.000001000.00000
     Eigenvalues --- 1000.000001000.000001000.000001000.000001000.00000
     Eigenvalues --- 1000.000001000.000001000.000001000.000001000.00000
     Eigenvalues --- 1000.000001000.000001000.000001000.000001000.00000
     Eigenvalues --- 1000.000001000.000001000.000001000.000001000.00000
     Eigenvalues --- 1000.000001000.000001000.000001000.000001000.00000
     Eigenvalues --- 1000.000001000.000001000.000001000.000001000.00000
     Eigenvalues --- 1000.000001000.000001000.000001000.000001000.00000
     Eigenvalues --- 1000.000001000.000001000.000001000.000001000.00000
     Eigenvalues --- 1000.000001000.000001000.000001000.000001000.00000
 RFO step:  Lambda=-3.76244513D-03 EMin= 4.63320318D-03
 Linear search not attempted -- first point.
 Iteration  1 RMS(Cart)=  0.04440396 RMS(Int)=  0.00235856
 Iteration  2 RMS(Cart)=  0.00233798 RMS(Int)=  0.00083234
 Iteration  3 RMS(Cart)=  0.00000362 RMS(Int)=  0.00083233
 Iteration  4 RMS(Cart)=  0.00000001 RMS(Int)=  0.00083233
 Iteration  1 RMS(Cart)=  0.00017114 RMS(Int)=  0.00011269
 Iteration  2 RMS(Cart)=  0.00008754 RMS(Int)=  0.00012598
 Iteration  3 RMS(Cart)=  0.00004478 RMS(Int)=  0.00014123
 Iteration  4 RMS(Cart)=  0.00002290 RMS(Int)=  0.00015058
 Iteration  5 RMS(Cart)=  0.00001171 RMS(Int)=  0.00015568
 Iteration  6 RMS(Cart)=  0.00000599 RMS(Int)=  0.00015836
 Iteration  7 RMS(Cart)=  0.00000306 RMS(Int)=  0.00015975
 Iteration  8 RMS(Cart)=  0.00000157 RMS(Int)=  0.00016047
 Iteration  9 RMS(Cart)=  0.00000080 RMS(Int)=  0.00016083
 Variable       Old X    -DE/DX   Delta X   Delta X   Delta X     New X
                                 (Linear)    (Quad)   (Total)
    R1        2.57094   0.00481   0.00000   0.00357   0.00610   2.57704
    R2        2.61395   0.00172   0.00000   0.00300   0.00313   2.61708
    R3        2.17426  -0.01557   0.00000  -0.06198  -0.05962   2.11464
    R4        2.03878  -0.00075   0.00000  -0.00319  -0.00230   2.03648
    R5        2.61694   0.00283   0.00000   0.00537   0.00531   2.62225
    R6        2.51435   0.00440   0.00000   0.00844   0.00843   2.52278
    R7        2.03340   0.00010   0.00000   0.00027   0.00027   2.03367
    R8        2.53535  -0.00036   0.00000   0.00055   0.00043   2.53577
    R9        2.79959  -0.00022   0.00000  -0.00063  -0.00061   2.79898
   R10        3.86715  -0.00194   0.00000  -0.07738  -0.07484   3.79231
   R11        8.74927  -0.00258   0.00000  -0.02765  -0.03026   8.71901
   R12        2.75874   0.00064   0.00000   0.00171   0.00171   2.76045
   R13        2.87782  -0.00029   0.00000  -0.00096  -0.00100   2.87682
   R14        2.06265  -0.00019   0.00000  -0.00054  -0.00054   2.06210
   R15        2.06316   0.00012   0.00000   0.00033   0.00033   2.06349
   R16        2.06500  -0.00024   0.00000  -0.00068  -0.00068   2.06433
   R17        2.06691   0.00030   0.00000   0.00086   0.00086   2.06777
   R18        2.06543   0.00018   0.00000   0.00053   0.00053   2.06596
   R19        2.05950   0.00010   0.00000   0.00029   0.00029   2.05979
   R20        2.05982   0.00023   0.00000   0.00066   0.00066   2.06048
   R21        2.05663   0.00009   0.00000   0.00025   0.00025   2.05688
    A1        1.84929  -0.00070   0.00000   0.00211   0.00129   1.85058
    A2        2.39610  -0.00223   0.00000  -0.04752  -0.04522   2.35088
    A3        2.03770   0.00293   0.00000   0.04555   0.04402   2.08172
    A4        2.29621  -0.00110   0.00000  -0.02698  -0.02610   2.27011
    A5        1.87807   0.00062   0.00000   0.00323   0.00305   1.88112
    A6        2.10889   0.00048   0.00000   0.02376   0.02306   2.13195
    A7        2.20675  -0.00071   0.00000  -0.00279  -0.00297   2.20379
    A8        1.88217   0.00180   0.00000   0.00805   0.00822   1.89040
    A9        2.19417  -0.00108   0.00000  -0.00501  -0.00519   2.18899
   A10        1.92035  -0.00087   0.00000  -0.00677  -0.00638   1.91397
   A11        2.16395   0.00030   0.00000   0.00291   0.00273   2.16668
   A12        2.19882   0.00057   0.00000   0.00397   0.00371   2.20253
   A13        1.14383  -0.00257   0.00000  -0.01710  -0.02055   1.12328
   A14        1.89479  -0.00084   0.00000  -0.00629  -0.00613   1.88866
   A15        2.19362   0.00025   0.00000   0.00253   0.00244   2.19606
   A16        2.19441   0.00059   0.00000   0.00390   0.00382   2.19822
   A17        1.95308   0.00026   0.00000   0.00092   0.00099   1.95407
   A18        1.86231   0.00002   0.00000   0.00234   0.00231   1.86463
   A19        1.85655  -0.00002   0.00000  -0.00143  -0.00146   1.85509
   A20        1.93125   0.00001   0.00000   0.00143   0.00140   1.93266
   A21        1.96144  -0.00045   0.00000  -0.00501  -0.00502   1.95642
   A22        1.89463   0.00021   0.00000   0.00205   0.00207   1.89669
   A23        1.89539   0.00011   0.00000   0.00100   0.00100   1.89639
   A24        1.93035  -0.00030   0.00000  -0.00242  -0.00242   1.92794
   A25        1.93737   0.00007   0.00000   0.00064   0.00064   1.93801
   A26        1.88212   0.00002   0.00000  -0.00036  -0.00036   1.88176
   A27        1.89200   0.00005   0.00000   0.00143   0.00142   1.89342
   A28        1.92509   0.00006   0.00000  -0.00022  -0.00022   1.92487
   A29        1.91337   0.00012   0.00000   0.00084   0.00084   1.91421
   A30        1.91620   0.00016   0.00000   0.00105   0.00105   1.91725
   A31        1.90495   0.00019   0.00000   0.00102   0.00102   1.90597
   A32        1.91379  -0.00008   0.00000  -0.00014  -0.00014   1.91365
   A33        1.90643  -0.00019   0.00000  -0.00137  -0.00138   1.90505
   A34        1.90900  -0.00020   0.00000  -0.00140  -0.00140   1.90760
   A35        0.44704  -0.00415   0.00000  -0.06995  -0.07089   0.37615
   A36        3.14159  -0.00920   0.00000  -0.15381  -0.15442   2.98717
   A37        3.14159  -0.00405   0.00000  -0.05164  -0.05401   3.08758
    D1       -3.12706  -0.00033   0.00000  -0.01407  -0.01419  -3.14125
    D2        0.00881  -0.00026   0.00000  -0.01180  -0.01131  -0.00250
    D3       -0.00118  -0.00003   0.00000  -0.00122  -0.00141  -0.00260
    D4        3.13468   0.00003   0.00000   0.00105   0.00147   3.13615
    D5       -0.01348   0.00055   0.00000   0.02159   0.02074   0.00726
    D6        3.14000   0.00036   0.00000   0.01280   0.01250  -3.13069
    D7        3.14005   0.00038   0.00000   0.01272   0.01120  -3.13194
    D8        0.01035   0.00018   0.00000   0.00393   0.00295   0.01330
    D9        0.00048   0.00001   0.00000  -0.00511  -0.00594  -0.00546
   D10        3.12515   0.00036   0.00000   0.02425   0.02408  -3.13396
   D11        0.00061   0.00001   0.00000  -0.00660  -0.00671  -0.00610
   D12       -3.13463  -0.00006   0.00000  -0.00903  -0.00987   3.13869
   D13       -0.00138  -0.00008   0.00000  -0.00153  -0.00164  -0.00302
   D14       -3.11521  -0.00019   0.00000  -0.00699  -0.00721  -3.12242
   D15        3.13523  -0.00003   0.00000   0.00025   0.00078   3.13600
   D16        0.02139  -0.00014   0.00000  -0.00520  -0.00479   0.01660
   D17        3.14096  -0.00006   0.00000  -0.00326  -0.00290   3.13806
   D18       -0.01282   0.00013   0.00000   0.00574   0.00554  -0.00727
   D19        0.01279  -0.00059   0.00000  -0.02275  -0.02206  -0.00927
   D20       -3.14099  -0.00039   0.00000  -0.01376  -0.01361   3.12858
   D21       -0.00263   0.00041   0.00000   0.00000   0.00000  -0.00263
   D22       -0.00701   0.00041   0.00000   0.01490   0.01456   0.00755
   D23        3.10681   0.00052   0.00000   0.02033   0.02011   3.12692
   D24       -3.13531  -0.00011   0.00000  -0.00444  -0.00441  -3.13972
   D25       -0.02149   0.00000   0.00000   0.00099   0.00114  -0.02035
   D26        1.01603   0.00074   0.00000   0.05297   0.05267   1.06870
   D27       -1.09873   0.00056   0.00000   0.04914   0.04884  -1.04989
   D28       -3.11892   0.00033   0.00000   0.04637   0.04608  -3.07284
   D29       -2.11176   0.00053   0.00000   0.04284   0.04312  -2.06863
   D30        2.05667   0.00035   0.00000   0.03901   0.03929   2.09596
   D31        0.03648   0.00012   0.00000   0.03624   0.03653   0.07301
   D32       -0.00045   0.00000   0.00000   0.01720   0.02112   0.02067
   D33       -0.99818   0.00001   0.00000   0.00213   0.00221  -0.99598
   D34        1.10524   0.00009   0.00000   0.00314   0.00322   1.10846
   D35       -3.08564   0.00005   0.00000   0.00268   0.00276  -3.08288
   D36        2.17583  -0.00010   0.00000  -0.00409  -0.00417   2.17166
   D37       -2.00393  -0.00002   0.00000  -0.00308  -0.00316  -2.00709
   D38        0.08837  -0.00006   0.00000  -0.00353  -0.00361   0.08476
   D39        3.12364  -0.00012   0.00000  -0.01189  -0.01188   3.11176
   D40       -1.09746  -0.00020   0.00000  -0.01313  -0.01312  -1.11058
   D41        1.04534  -0.00029   0.00000  -0.01464  -0.01464   1.03070
   D42       -1.08514   0.00008   0.00000  -0.00739  -0.00738  -1.09252
   D43        0.97694   0.00000   0.00000  -0.00862  -0.00862   0.96833
   D44        3.11974  -0.00009   0.00000  -0.01014  -0.01014   3.10961
   D45        1.03600   0.00004   0.00000  -0.00720  -0.00721   1.02878
   D46        3.09808  -0.00004   0.00000  -0.00844  -0.00845   3.08963
   D47       -1.04230  -0.00013   0.00000  -0.00996  -0.00997  -1.05227
         Item               Value     Threshold  Converged?
 Maximum Force            0.015574     0.000450     NO 
 RMS     Force            0.002103     0.000300     NO 
 Maximum Displacement     0.272482     0.001800     NO 
 RMS     Displacement     0.045185     0.001200     NO 
 Predicted change in Energy=-2.050238D-03
 GradGradGradGradGradGradGradGradGradGradGradGradGradGradGradGradGradGrad

                          Input orientation:                          
 ---------------------------------------------------------------------
 Center     Atomic      Atomic             Coordinates (Angstroms)
 Number     Number       Type             X           Y           Z
 ---------------------------------------------------------------------
      1          6           0       -0.013659    0.621193   -0.050185
      2          6           0       -1.179689    1.303174    0.136857
      3          6           0       -1.701526   -0.817499   -0.210295
      4          7           0       -0.372586   -0.700033   -0.258703
      5          1           0        1.069085    0.903286   -0.067168
      6          1           0       -1.347832    2.350258    0.328418
      7          1           0       -2.265587   -1.724752   -0.340200
      8          7           0       -2.223122    0.393909    0.036800
      9          6           0        0.594551   -1.797190   -0.492619
     10          6           0        1.538438   -1.985182    0.686903
     11          1           0        1.150987   -1.540823   -1.395621
     12          1           0        0.000712   -2.692015   -0.690126
     13          1           0        2.205056   -2.823204    0.470878
     14          1           0        2.156600   -1.093411    0.828078
     15          1           0        0.983597   -2.210483    1.601563
     16          6           0       -3.645092    0.708328    0.150767
     17          1           0       -3.839145    1.188092    1.110067
     18          1           0       -3.943024    1.374669   -0.659237
     19          1           0       -4.221527   -0.212898    0.089149
     20         17           0        3.066600    1.087233   -0.125081
 ---------------------------------------------------------------------
                    Distance matrix (angstroms):
                    1          2          3          4          5
     1  C    0.000000
     2  C    1.363712   0.000000
     3  C    2.223592   2.211353   0.000000
     4  N    1.384899   2.195614   1.334999   0.000000
     5  H    1.119017   2.293147   3.264639   2.164655   0.000000
     6  H    2.216534   1.077660   3.232645   3.255778   2.844593
     7  H    3.264774   3.251937   1.076173   2.154100   4.254547
     8  N    2.222826   1.387634   1.341874   2.169912   3.333002
     9  C    2.532636   3.627179   2.512264   1.481156   2.774664
    10  C    3.121778   4.301634   3.558907   2.489537   3.021947
    11  H    2.800163   3.983574   3.172543   2.078650   2.783013
    12  H    3.374474   4.247208   2.577142   2.072068   3.802063
    13  H    4.130141   5.347435   4.443898   3.418242   3.932765
    14  H    2.901937   4.165602   4.004932   2.780759   2.443553
    15  H    3.426540   4.378465   3.526062   2.753412   3.533769
    16  C    3.638033   2.536187   2.497191   3.586146   4.723237
    17  H    4.037562   2.834270   3.214836   4.177988   5.055465
    18  H    4.047046   2.876612   3.167248   4.148837   5.068924
    19  H    4.292001   3.399048   2.608758   3.895209   5.409332
    20  Cl   3.116215   4.259838   5.135201   3.878166   2.006803
                    6          7          8          9         10
     6  H    0.000000
     7  H    4.230252   0.000000
     8  N    2.162978   2.152360   0.000000
     9  C    4.652771   2.865112   3.608390   0.000000
    10  C    5.220643   3.948845   4.498005   1.522346   0.000000
    11  H    4.935273   3.580604   4.144832   1.091218   2.164366
    12  H    5.317942   2.488806   3.872568   1.091954   2.181840
    13  H    6.277580   4.674515   5.490628   2.138868   1.092394
    14  H    4.938579   4.617273   4.692570   2.163226   1.094217
    15  H    5.277955   3.816225   4.417509   2.169739   1.093257
    16  C    2.829292   2.839712   1.460769   4.966502   5.866125
    17  H    2.858014   3.614419   2.096225   5.580159   6.258366
    18  H    2.943171   3.538642   2.098671   5.538776   6.568647
    19  H    3.858126   2.509132   2.089157   5.103239   6.056030
    20  Cl   4.613904   6.032061   5.337422   3.816544   3.526235
                   11         12         13         14         15
    11  H    0.000000
    12  H    1.773725   0.000000
    13  H    2.497875   2.494849   0.000000
    14  H    2.481184   3.083558   1.766953   0.000000
    15  H    3.075642   2.539640   1.773651   1.795011   0.000000
    16  C    5.518367   5.055820   6.840937   6.112663   5.661186
    17  H    6.215052   5.748080   7.282268   6.421350   5.920365
    18  H    5.915345   5.664973   7.529819   6.746032   6.498932
    19  H    5.729907   4.957882   6.946969   6.480882   5.776769
    20  Cl   3.491493   4.899149   4.048325   2.547905   4.265575
                   16         17         18         19         20
    16  C    0.000000
    17  H    1.089994   0.000000
    18  H    1.090358   1.782144   0.000000
    19  H    1.088454   1.775180   1.777080   0.000000
    20  Cl   6.728036   7.016059   7.035821   7.406283   0.000000
 Stoichiometry    C6H11ClN2
 Framework group  C1[X(C6H11ClN2)]
 Deg. of freedom    54
 Full point group                 C1      NOp   1
 Largest Abelian subgroup         C1      NOp   1
 Largest concise Abelian subgroup C1      NOp   1
                         Standard orientation:                         
 ---------------------------------------------------------------------
 Center     Atomic      Atomic             Coordinates (Angstroms)
 Number     Number       Type             X           Y           Z
 ---------------------------------------------------------------------
      1          6           0       -0.027988    0.645965   -0.028058
      2          6           0       -1.217410    1.286500    0.158224
      3          6           0       -1.665931   -0.845473   -0.220725
      4          7           0       -0.341279   -0.683521   -0.256667
      5          1           0        1.044907    0.963887   -0.032466
      6          1           0       -1.421663    2.324823    0.361980
      7          1           0       -2.198574   -1.769070   -0.367041
      8          7           0       -2.229313    0.344653    0.037783
      9          6           0        0.663495   -1.744920   -0.496848
     10          6           0        1.603873   -1.917232    0.687861
     11          1           0        1.218147   -1.458358   -1.391834
     12          1           0        0.101206   -2.656184   -0.710840
     13          1           0        2.299571   -2.729829    0.466462
     14          1           0        2.191011   -1.007469    0.845689
     15          1           0        1.049694   -2.172849    1.594920
     16          6           0       -3.661770    0.610370    0.144120
     17          1           0       -3.879094    1.070702    1.107941
     18          1           0       -3.975307    1.277177   -0.659585
     19          1           0       -4.206849   -0.328506    0.065800
     20         17           0        3.035617    1.214499   -0.071546
 ---------------------------------------------------------------------
 Rotational constants (GHZ):      2.1898493      0.6919874      0.5472417
 Standard basis: 6-311+G(d,p) (5D, 7F)
 There are   281 symmetry adapted cartesian basis functions of A   symmetry.
 There are   272 symmetry adapted basis functions of A   symmetry.
   272 basis functions,   429 primitive gaussians,   281 cartesian basis functions
    39 alpha electrons       39 beta electrons
       nuclear repulsion energy       510.3488753931 Hartrees.
 NAtoms=   20 NActive=   20 NUniq=   20 SFac= 1.00D+00 NAtFMM=   60 NAOKFM=F Big=F
 Integral buffers will be    131072 words long.
 Raffenetti 2 integral format.
 Two-electron integral symmetry is turned on.
 Nuclear repulsion after empirical dispersion term =      510.3168926792 Hartrees.
 One-electron integrals computed using PRISM.
 NBasis=   272 RedAO= T EigKep=  9.75D-06  NBF=   272
 NBsUse=   272 1.00D-06 EigRej= -1.00D+00 NBFU=   272
 Initial guess from the checkpoint file:  "CJS1_emim-cl_B_6-311+g-d-p-_gd3bj_opt-modredundant_difrz_err.chk"
 B after Tr=     0.000000    0.000000    0.000000
         Rot=    0.999940   -0.001909    0.001017   -0.010777 Ang=  -1.26 deg.
 ExpMin= 4.38D-02 ExpMax= 1.06D+05 ExpMxC= 3.62D+03 IAcc=2 IRadAn=         4 AccDes= 0.00D+00
 Harris functional with IExCor=  402 and IRadAn=       4 diagonalized for initial guess.
 HarFok:  IExCor=  402 AccDes= 0.00D+00 IRadAn=         4 IDoV= 1 UseB2=F ITyADJ=14
 ICtDFT=  3500011 ScaDFX=  1.000000  1.000000  1.000000  1.000000
 FoFCou: FMM=F IPFlag=           0 FMFlag=      100000 FMFlg1=           0
         NFxFlg=           0 DoJE=T BraDBF=F KetDBF=T FulRan=T
         wScrn=  0.000000 ICntrl=     500 IOpCl=  0 I1Cent=   200000004 NGrid=           0
         NMat0=    1 NMatS0=      1 NMatT0=    0 NMatD0=    1 NMtDS0=    0 NMtDT0=    0
 Petite list used in FoFCou.
 Keep R1 ints in memory in canonical form, NReq=700735283.
 Requested convergence on RMS density matrix=1.00D-09 within 128 cycles.
 Requested convergence on MAX density matrix=1.00D-07.
 Requested convergence on             energy=1.00D-07.
 No special actions if energy rises.
 SCF Done:  E(RB3LYP) =  -805.102178211     A.U. after   13 cycles
            NFock= 13  Conv=0.66D-09     -V/T= 2.0033
 Calling FoFJK, ICntrl=      2127 FMM=F ISym2X=0 I1Cent= 0 IOpClX= 0 NMat=1 NMatS=1 NMatT=0.
 ***** Axes restored to original set *****
 -------------------------------------------------------------------
 Center     Atomic                   Forces (Hartrees/Bohr)
 Number     Number              X              Y              Z
 -------------------------------------------------------------------
      1        6          -0.000609400   -0.002218940    0.000088601
      2        6           0.001342758    0.000925723   -0.000030882
      3        6          -0.000218493    0.000600603    0.001503790
      4        7           0.000648651    0.001179904   -0.000756754
      5        1          -0.001997907    0.002797373    0.000820969
      6        1          -0.000594430   -0.001189122   -0.000201718
      7        1           0.000125742   -0.000159312    0.000094030
      8        7           0.000480603   -0.000428691   -0.000835671
      9        6          -0.000018403   -0.000206492   -0.000410348
     10        6          -0.000487641   -0.000734092    0.000985868
     11        1           0.000422045    0.000676124    0.000686504
     12        1          -0.000138185   -0.000078457   -0.000324829
     13        1          -0.000098429   -0.000083361   -0.000043827
     14        1          -0.000341668   -0.000075739   -0.000767222
     15        1          -0.000299642   -0.000201361    0.000092568
     16        6           0.000174598   -0.000156719   -0.000033063
     17        1           0.000164253   -0.000064501    0.000021121
     18        1           0.000013262    0.000005025    0.000001003
     19        1          -0.000015986   -0.000061005   -0.000018942
     20       17           0.001448272   -0.000526959   -0.000871197
 -------------------------------------------------------------------
 Cartesian Forces:  Max     0.002797373 RMS     0.000772158

 GradGradGradGradGradGradGradGradGradGradGradGradGradGradGradGradGradGrad
 Berny optimization.
 Using GEDIIS/GDIIS optimizer.
 FormGI is forming the generalized inverse of G from B-inverse, IUseBI=4.
 Internal  Forces:  Max     0.002125569 RMS     0.000574152
 Search for a local minimum.
 Step number   2 out of a maximum of  115
 All quantities printed in internal units (Hartrees-Bohrs-Radians)
 Mixed Optimization -- En-DIIS/RFO-DIIS
 Update second derivatives using D2CorX and points    1    2
 DE= -2.22D-03 DEPred=-2.05D-03 R= 1.08D+00
 TightC=F SS=  1.41D+00  RLast= 2.54D-01 DXNew= 5.0454D-01 7.6295D-01
 Trust test= 1.08D+00 RLast= 2.54D-01 DXMaxT set to 5.05D-01
 ITU=  1  0
 Use linear search instead of GDIIS.
     Eigenvalues ---    0.00462   0.00529   0.00900   0.00983   0.01559
     Eigenvalues ---    0.01623   0.01842   0.01951   0.01978   0.02237
     Eigenvalues ---    0.02538   0.04225   0.04995   0.05317   0.05583
     Eigenvalues ---    0.05931   0.07546   0.07635   0.09014   0.09445
     Eigenvalues ---    0.12738   0.15988   0.16000   0.16000   0.16000
     Eigenvalues ---    0.16000   0.16000   0.16032   0.16528   0.21953
     Eigenvalues ---    0.22809   0.23394   0.24806   0.24991   0.28299
     Eigenvalues ---    0.30093   0.34392   0.34397   0.34470   0.34497
     Eigenvalues ---    0.34608   0.34638   0.34812   0.34831   0.35007
     Eigenvalues ---    0.35329   0.36478   0.37013   0.42616   0.43365
     Eigenvalues ---    0.48414   0.55041   0.573931000.000001000.00000
     Eigenvalues --- 1000.000001000.000001000.000001000.000001000.00000
     Eigenvalues --- 1000.000001000.000001000.000001000.000001000.00000
     Eigenvalues --- 1000.000001000.000001000.000001000.000001000.00000
     Eigenvalues --- 1000.000001000.000001000.000001000.000001000.00000
     Eigenvalues --- 1000.000001000.000001000.000001000.000001000.00000
     Eigenvalues --- 1000.000001000.000001000.000001000.000001000.00000
     Eigenvalues --- 1000.000001000.000001000.000001000.000001000.00000
     Eigenvalues --- 1000.000001000.000001000.000001000.000001000.00000
     Eigenvalues --- 1000.000001000.000001000.000001000.000001000.00000
     Eigenvalues --- 1000.000001000.000001000.000001000.000001000.00000
 RFO step:  Lambda=-1.29555786D-03 EMin= 4.62057496D-03
 Quartic linear search produced a step of  0.20144.
 Iteration  1 RMS(Cart)=  0.09600722 RMS(Int)=  0.00389167
 Iteration  2 RMS(Cart)=  0.00534535 RMS(Int)=  0.00043640
 Iteration  3 RMS(Cart)=  0.00000775 RMS(Int)=  0.00043632
 Iteration  4 RMS(Cart)=  0.00000000 RMS(Int)=  0.00043632
 Iteration  1 RMS(Cart)=  0.00008411 RMS(Int)=  0.00005566
 Iteration  2 RMS(Cart)=  0.00004107 RMS(Int)=  0.00006223
 Iteration  3 RMS(Cart)=  0.00002006 RMS(Int)=  0.00006938
 Iteration  4 RMS(Cart)=  0.00000980 RMS(Int)=  0.00007353
 Iteration  5 RMS(Cart)=  0.00000478 RMS(Int)=  0.00007569
 Iteration  6 RMS(Cart)=  0.00000234 RMS(Int)=  0.00007677
 Iteration  7 RMS(Cart)=  0.00000114 RMS(Int)=  0.00007731
 Iteration  8 RMS(Cart)=  0.00000056 RMS(Int)=  0.00007757
 Variable       Old X    -DE/DX   Delta X   Delta X   Delta X     New X
                                 (Linear)    (Quad)   (Total)
    R1        2.57704  -0.00090   0.00123  -0.00104   0.00160   2.57864
    R2        2.61708   0.00005   0.00063   0.00050   0.00119   2.61827
    R3        2.11464  -0.00015  -0.01201  -0.00705  -0.01775   2.09689
    R4        2.03648  -0.00110  -0.00046  -0.00326  -0.00324   2.03324
    R5        2.62225  -0.00036   0.00107  -0.00048   0.00054   2.62279
    R6        2.52278  -0.00048   0.00170   0.00027   0.00198   2.52476
    R7        2.03367   0.00006   0.00005   0.00021   0.00027   2.03394
    R8        2.53577  -0.00138   0.00009  -0.00265  -0.00262   2.53315
    R9        2.79898  -0.00014  -0.00012  -0.00054  -0.00067   2.79831
   R10        3.79231   0.00123  -0.01508   0.01991   0.00628   3.79859
   R11        8.71901   0.00017  -0.00610   0.04223   0.03468   8.75369
   R12        2.76045  -0.00039   0.00035  -0.00104  -0.00070   2.75976
   R13        2.87682  -0.00043  -0.00020  -0.00177  -0.00196   2.87486
   R14        2.06210  -0.00019  -0.00011  -0.00072  -0.00083   2.06128
   R15        2.06349   0.00020   0.00007   0.00071   0.00078   2.06427
   R16        2.06433   0.00001  -0.00014  -0.00003  -0.00017   2.06416
   R17        2.06777  -0.00035   0.00017  -0.00111  -0.00094   2.06683
   R18        2.06596   0.00027   0.00011   0.00098   0.00109   2.06704
   R19        2.05979  -0.00004   0.00006  -0.00010  -0.00004   2.05975
   R20        2.06048   0.00000   0.00013   0.00007   0.00020   2.06068
   R21        2.05688   0.00006   0.00005   0.00023   0.00028   2.05716
    A1        1.85058  -0.00013   0.00026   0.00033   0.00014   1.85072
    A2        2.35088  -0.00133  -0.00911  -0.02029  -0.02813   2.32275
    A3        2.08172   0.00146   0.00887   0.01994   0.02797   2.10969
    A4        2.27011   0.00046  -0.00526  -0.00355  -0.00837   2.26174
    A5        1.88112   0.00001   0.00061   0.00042   0.00092   1.88204
    A6        2.13195  -0.00047   0.00465   0.00315   0.00744   2.13939
    A7        2.20379  -0.00025  -0.00060  -0.00207  -0.00275   2.20104
    A8        1.89040   0.00014   0.00166   0.00183   0.00359   1.89399
    A9        2.18899   0.00011  -0.00104   0.00029  -0.00083   2.18816
   A10        1.91397  -0.00018  -0.00128  -0.00176  -0.00292   1.91105
   A11        2.16668   0.00213   0.00055   0.01029   0.01060   2.17728
   A12        2.20253  -0.00194   0.00075  -0.00862  -0.00807   2.19446
   A13        1.12328  -0.00027  -0.00414  -0.00920  -0.01538   1.10790
   A14        1.88866   0.00017  -0.00123  -0.00057  -0.00176   1.88691
   A15        2.19606   0.00012   0.00049   0.00127   0.00170   2.19776
   A16        2.19822  -0.00029   0.00077  -0.00047   0.00024   2.19847
   A17        1.95407   0.00008   0.00020  -0.00043  -0.00028   1.95379
   A18        1.86463  -0.00014   0.00047   0.00130   0.00176   1.86639
   A19        1.85509   0.00003  -0.00029  -0.00305  -0.00337   1.85172
   A20        1.93266   0.00031   0.00028   0.00531   0.00560   1.93825
   A21        1.95642  -0.00052  -0.00101  -0.00757  -0.00859   1.94783
   A22        1.89669   0.00025   0.00042   0.00468   0.00511   1.90180
   A23        1.89639   0.00002   0.00020  -0.00007   0.00013   1.89652
   A24        1.92794  -0.00098  -0.00049  -0.00760  -0.00809   1.91984
   A25        1.93801  -0.00005   0.00013   0.00021   0.00033   1.93834
   A26        1.88176   0.00036  -0.00007   0.00155   0.00147   1.88324
   A27        1.89342   0.00006   0.00029   0.00103   0.00132   1.89474
   A28        1.92487   0.00061  -0.00004   0.00500   0.00495   1.92983
   A29        1.91421  -0.00025   0.00017  -0.00190  -0.00173   1.91248
   A30        1.91725   0.00004   0.00021   0.00050   0.00071   1.91796
   A31        1.90597   0.00001   0.00021   0.00021   0.00041   1.90639
   A32        1.91365   0.00010  -0.00003   0.00068   0.00065   1.91430
   A33        1.90505   0.00008  -0.00028   0.00024  -0.00004   1.90501
   A34        1.90760   0.00002  -0.00028   0.00027  -0.00001   1.90759
   A35        0.37615  -0.00097  -0.01428  -0.03061  -0.04520   0.33095
   A36        2.98717  -0.00178  -0.03111  -0.04639  -0.07832   2.90885
   A37        3.08758  -0.00116  -0.01088  -0.05137  -0.06220   3.02538
    D1       -3.14125   0.00010  -0.00286   0.00628   0.00356  -3.13769
    D2       -0.00250   0.00003  -0.00228   0.01249   0.00993   0.00743
    D3       -0.00260  -0.00013  -0.00028  -0.00146  -0.00185  -0.00445
    D4        3.13615  -0.00020   0.00030   0.00474   0.00452   3.14067
    D5        0.00726  -0.00012   0.00418  -0.02326  -0.01864  -0.01139
    D6       -3.13069   0.00008   0.00252   0.00365   0.00649  -3.12420
    D7       -3.13194   0.00007   0.00226  -0.01688  -0.01393   3.13732
    D8        0.01330   0.00027   0.00059   0.01004   0.01120   0.02450
    D9       -0.00546   0.00024  -0.00120   0.01144   0.01053   0.00507
   D10       -3.13396  -0.00044   0.00485  -0.02362  -0.01859   3.13064
   D11       -0.00610   0.00026  -0.00135   0.01303   0.01137   0.00527
   D12        3.13869   0.00034  -0.00199   0.00605   0.00419  -3.14031
   D13       -0.00302   0.00007  -0.00033   0.00226   0.00197  -0.00105
   D14       -3.12242  -0.00003  -0.00145  -0.00875  -0.01008  -3.13250
   D15        3.13600   0.00001   0.00016   0.00786   0.00777  -3.13941
   D16        0.01660  -0.00009  -0.00096  -0.00315  -0.00428   0.01232
   D17        3.13806   0.00014  -0.00058   0.01614   0.01533  -3.12980
   D18       -0.00727  -0.00006   0.00112  -0.01142  -0.01006  -0.01733
   D19       -0.00927   0.00017  -0.00444   0.02506   0.02022   0.01095
   D20        3.12858  -0.00003  -0.00274  -0.00249  -0.00517   3.12341
   D21       -0.00263   0.00063   0.00000   0.00000  -0.00001  -0.00263
   D22        0.00755  -0.00015   0.00293  -0.01680  -0.01366  -0.00610
   D23        3.12692  -0.00004   0.00405  -0.00575  -0.00158   3.12534
   D24       -3.13972  -0.00012  -0.00089  -0.00798  -0.00882   3.13465
   D25       -0.02035  -0.00001   0.00023   0.00307   0.00326  -0.01709
   D26        1.06870   0.00116   0.01061   0.14259   0.15334   1.22205
   D27       -1.04989   0.00082   0.00984   0.13544   0.14543  -0.90446
   D28       -3.07284   0.00059   0.00928   0.13093   0.14036  -2.93248
   D29       -2.06863   0.00139   0.00869   0.17397   0.18251  -1.88613
   D30        2.09596   0.00105   0.00791   0.16683   0.17459   2.27055
   D31        0.07301   0.00082   0.00736   0.16231   0.16952   0.24253
   D32        0.02067  -0.00059   0.00426  -0.03505  -0.03250  -0.01182
   D33       -0.99598   0.00003   0.00044   0.00399   0.00439  -0.99158
   D34        1.10846   0.00002   0.00065   0.00394   0.00456   1.11301
   D35       -3.08288   0.00008   0.00056   0.00472   0.00524  -3.07764
   D36        2.17166  -0.00009  -0.00084  -0.00894  -0.00974   2.16192
   D37       -2.00709  -0.00010  -0.00064  -0.00898  -0.00958  -2.01667
   D38        0.08476  -0.00005  -0.00073  -0.00821  -0.00890   0.07586
   D39        3.11176  -0.00010  -0.00239  -0.01139  -0.01378   3.09797
   D40       -1.11058  -0.00023  -0.00264  -0.01397  -0.01660  -1.12718
   D41        1.03070  -0.00016  -0.00295  -0.01275  -0.01569   1.01501
   D42       -1.09252  -0.00001  -0.00149  -0.00647  -0.00795  -1.10048
   D43        0.96833  -0.00014  -0.00174  -0.00904  -0.01077   0.95755
   D44        3.10961  -0.00007  -0.00204  -0.00782  -0.00986   3.09975
   D45        1.02878   0.00016  -0.00145  -0.00195  -0.00342   1.02536
   D46        3.08963   0.00004  -0.00170  -0.00453  -0.00624   3.08339
   D47       -1.05227   0.00011  -0.00201  -0.00331  -0.00533  -1.05760
         Item               Value     Threshold  Converged?
 Maximum Force            0.002121     0.000450     NO 
 RMS     Force            0.000570     0.000300     NO 
 Maximum Displacement     0.333838     0.001800     NO 
 RMS     Displacement     0.096341     0.001200     NO 
 Predicted change in Energy=-8.281713D-04
 GradGradGradGradGradGradGradGradGradGradGradGradGradGradGradGradGradGrad

                          Input orientation:                          
 ---------------------------------------------------------------------
 Center     Atomic      Atomic             Coordinates (Angstroms)
 Number     Number       Type             X           Y           Z
 ---------------------------------------------------------------------
      1          6           0       -0.002483    0.671538   -0.099157
      2          6           0       -1.181081    1.330916    0.096153
      3          6           0       -1.659916   -0.806653   -0.189304
      4          7           0       -0.335203   -0.660758   -0.283496
      5          1           0        1.055360    1.004586   -0.135473
      6          1           0       -1.360498    2.377159    0.271770
      7          1           0       -2.204248   -1.730843   -0.278915
      8          7           0       -2.205618    0.396420    0.038129
      9          6           0        0.641004   -1.751021   -0.509599
     10          6           0        1.456108   -2.052302    0.739088
     11          1           0        1.285158   -1.435411   -1.331341
     12          1           0        0.058124   -2.618162   -0.828312
     13          1           0        2.124149   -2.890010    0.526734
     14          1           0        2.073291   -1.188015    1.000463
     15          1           0        0.806938   -2.327946    1.575191
     16          6           0       -3.631109    0.677580    0.185420
     17          1           0       -3.809183    1.171345    1.140681
     18          1           0       -3.968621    1.319934   -0.628569
     19          1           0       -4.185842   -0.258692    0.158508
     20         17           0        3.056508    1.102986   -0.297728
 ---------------------------------------------------------------------
                    Distance matrix (angstroms):
                    1          2          3          4          5
     1  C    0.000000
     2  C    1.364558   0.000000
     3  C    2.222670   2.209066   0.000000
     4  N    1.385531   2.196909   1.336047   0.000000
     5  H    1.109626   2.271962   3.264385   2.174614   0.000000
     6  H    2.211545   1.075944   3.230928   3.253995   2.808233
     7  H    3.263667   3.249911   1.076316   2.153702   4.257722
     8  N    2.224487   1.387921   1.340486   2.172446   3.321743
     9  C    2.539947   3.631152   2.507718   1.480802   2.811588
    10  C    3.201476   4.337545   3.481832   2.488145   3.204687
    11  H    2.759625   3.971478   3.220721   2.079336   2.726994
    12  H    3.370084   4.240929   2.577121   2.069532   3.820839
    13  H    4.195108   5.378305   4.378612   3.416790   4.092519
    14  H    2.995987   4.213517   3.936727   2.779819   2.670961
    15  H    3.529236   4.418941   3.393102   2.745672   3.754178
    16  C    3.639773   2.537213   2.495790   3.588039   4.708810
    17  H    4.034597   2.832564   3.209469   4.177729   5.031914
    18  H    4.053511   2.880230   3.169455   4.152583   5.057962
    19  H    4.293275   3.399901   2.607976   3.896722   5.399305
    20  Cl   3.095643   4.261955   5.089512   3.822918   2.010126
                    6          7          8          9         10
     6  H    0.000000
     7  H    4.229758   0.000000
     8  N    2.166135   2.150760   0.000000
     9  C    4.653860   2.854659   3.607598   0.000000
    10  C    5.269893   3.812856   4.460473   1.521310   0.000000
    11  H    4.909699   3.656615   4.173316   1.090781   2.167131
    12  H    5.308097   2.491485   3.868197   1.092365   2.175155
    13  H    6.320668   4.552776   5.457678   2.137991   1.092305
    14  H    5.003235   4.497646   4.663217   2.156087   1.093721
    15  H    5.341787   3.586290   4.342836   2.169498   1.093832
    16  C    2.837551   2.837612   1.460400   4.963073   5.799877
    17  H    2.864446   3.607460   2.094648   5.573850   6.186798
    18  H    2.954766   3.541541   2.098939   5.540177   6.532239
    19  H    3.865631   2.507047   2.089246   5.096258   5.948588
    20  Cl   4.632255   5.975492   5.319963   3.744984   3.686748
                   11         12         13         14         15
    11  H    0.000000
    12  H    1.776949   0.000000
    13  H    2.504438   2.485662   0.000000
    14  H    2.473797   3.074189   1.767426   0.000000
    15  H    3.077863   2.534122   1.774887   1.798167   0.000000
    16  C    5.561921   5.049752   6.779911   6.056808   5.537229
    17  H    6.233649   5.761368   7.216368   6.339538   5.808821
    18  H    5.973944   5.635882   7.495346   6.741533   6.400746
    19  H    5.791041   4.955013   6.846562   6.383516   5.587186
    20  Cl   3.263357   4.808198   4.182470   2.810818   4.509954
                   16         17         18         19         20
    16  C    0.000000
    17  H    1.089972   0.000000
    18  H    1.090464   1.782624   0.000000
    19  H    1.088603   1.775258   1.777283   0.000000
    20  Cl   6.718529   7.015085   7.036261   7.383357   0.000000
 Stoichiometry    C6H11ClN2
 Framework group  C1[X(C6H11ClN2)]
 Deg. of freedom    54
 Full point group                 C1      NOp   1
 Largest Abelian subgroup         C1      NOp   1
 Largest concise Abelian subgroup C1      NOp   1
                         Standard orientation:                         
 ---------------------------------------------------------------------
 Center     Atomic      Atomic             Coordinates (Angstroms)
 Number     Number       Type             X           Y           Z
 ---------------------------------------------------------------------
      1          6           0       -0.017656    0.689081   -0.004430
      2          6           0       -1.220956    1.303329    0.187372
      3          6           0       -1.627734   -0.823203   -0.251221
      4          7           0       -0.305196   -0.636822   -0.285500
      5          1           0        1.030840    1.051424    0.020738
[...]
    17  H    4.036769   2.839764   3.205723   4.176055   5.044181
    18  H    4.044034   2.871654   3.173396   4.152151   5.055073
    19  H    4.286628   3.398196   2.605148   3.892014   5.388365
    20  Cl   3.147447   4.419221   4.942567   3.629250   2.140110
                    6          7          8          9         10
     6  H    0.000000
     7  H    4.224434   0.000000
     8  N    2.156106   2.152248   0.000000
     9  C    4.663973   2.846757   3.607066   0.000000
    10  C    5.337505   3.588805   4.375435   1.521942   0.000000
    11  H    4.857232   3.768496   4.202021   1.092889   2.147895
    12  H    5.302710   2.581460   3.901416   1.092054   2.187662
    13  H    6.376628   4.377373   5.392578   2.140442   1.091857
    14  H    5.081157   4.260250   4.555039   2.146622   1.090880
    15  H    5.444692   3.238861   4.224634   2.181554   1.094376
    16  C    2.820420   2.839000   1.460026   4.960743   5.668213
    17  H    2.861872   3.602344   2.095566   5.565693   6.051535
    18  H    2.923299   3.549968   2.098513   5.546790   6.439025
    19  H    3.849840   2.505983   2.087922   5.089517   5.757341
    20  Cl   4.941310   5.748271   5.341282   3.319774   3.590621
                   11         12         13         14         15
    11  H    0.000000
    12  H    1.798548   0.000000
    13  H    2.497863   2.501379   0.000000
    14  H    2.420587   3.074123   1.759703   0.000000
    15  H    3.071989   2.568900   1.775704   1.795271   0.000000
    16  C    5.616228   5.095107   6.673628   5.896115   5.341785
    17  H    6.237014   5.830411   7.101880   6.144266   5.641783
    18  H    6.064075   5.643700   7.423544   6.651947   6.231457
    19  H    5.874102   5.019155   6.689345   6.158671   5.296050
    20  Cl   2.507398   4.269164   3.929928   2.972522   4.565116
                   16         17         18         19         20
    16  C    0.000000
    17  H    1.090056   0.000000
    18  H    1.090354   1.782722   0.000000
    19  H    1.088522   1.775377   1.776680   0.000000
    20  Cl   6.777703   7.140333   7.138265   7.356412   0.000000
 Stoichiometry    C6H11ClN2
 Framework group  C1[X(C6H11ClN2)]
 Deg. of freedom    54
 Full point group                 C1      NOp   1
 Largest Abelian subgroup         C1      NOp   1
 Largest concise Abelian subgroup C1      NOp   1
                         Standard orientation:                         
 ---------------------------------------------------------------------
 Center     Atomic      Atomic             Coordinates (Angstroms)
 Number     Number       Type             X           Y           Z
 ---------------------------------------------------------------------
      1          6           0       -0.100344    0.850591    0.063995
      2          6           0       -1.365050    1.319627    0.262535
      3          6           0       -1.523668   -0.806413   -0.318642
      4          7           0       -0.231356   -0.477759   -0.302023
      5          1           0        0.913332    1.279987    0.128658
      6          1           0       -1.715403    2.296279    0.547385
      7          1           0       -1.926399   -1.773465   -0.565497
      8          7           0       -2.242888    0.273493    0.019284
      9          6           0        0.896334   -1.404408   -0.564542
     10          6           0        1.412628   -2.024900    0.725705
     11          1           0        1.685800   -0.798688   -1.016487
     12          1           0        0.527872   -2.151153   -1.271075
     13          1           0        2.215619   -2.724123    0.483951
     14          1           0        1.837939   -1.244203    1.357879
     15          1           0        0.627305   -2.566393    1.262092
     16          6           0       -3.699160    0.342430    0.097996
     17          1           0       -3.998024    0.659876    1.097061
     18          1           0       -4.077527    1.049522   -0.640740
     19          1           0       -4.114742   -0.643380   -0.102883
     20         17           0        3.036440    1.081414   -0.053144
 ---------------------------------------------------------------------
 Rotational constants (GHZ):      2.3929054      0.6891638      0.5616684

 **********************************************************************

            Population analysis using the SCF density.

 **********************************************************************

 Orbital symmetries:
       Occupied  (A) (A) (A) (A) (A) (A) (A) (A) (A) (A) (A) (A)
                 (A) (A) (A) (A) (A) (A) (A) (A) (A) (A) (A) (A)
                 (A) (A) (A) (A) (A) (A) (A) (A) (A) (A) (A) (A)
                 (A) (A) (A)
       Virtual   (A) (A) (A) (A) (A) (A) (A) (A) (A) (A) (A) (A)
                 (A) (A) (A) (A) (A) (A) (A) (A) (A) (A) (A) (A)
                 (A) (A) (A) (A) (A) (A) (A) (A) (A) (A) (A) (A)
                 (A) (A) (A) (A) (A) (A) (A) (A) (A) (A) (A) (A)
                 (A) (A) (A) (A) (A) (A) (A) (A) (A) (A) (A) (A)
                 (A) (A) (A) (A) (A) (A) (A) (A) (A) (A) (A) (A)
                 (A) (A) (A) (A) (A) (A) (A) (A) (A) (A) (A) (A)
                 (A) (A) (A) (A) (A) (A) (A) (A) (A) (A) (A) (A)
                 (A) (A) (A) (A) (A) (A) (A) (A) (A) (A) (A) (A)
                 (A) (A) (A) (A) (A) (A) (A) (A) (A) (A) (A) (A)
                 (A) (A) (A) (A) (A) (A) (A) (A) (A) (A) (A) (A)
                 (A) (A) (A) (A) (A) (A) (A) (A) (A) (A) (A) (A)
                 (A) (A) (A) (A) (A) (A) (A) (A) (A) (A) (A) (A)
                 (A) (A) (A) (A) (A) (A) (A) (A) (A) (A) (A) (A)
                 (A) (A) (A) (A) (A) (A) (A) (A) (A) (A) (A) (A)
                 (A) (A) (A) (A) (A) (A) (A) (A) (A) (A) (A) (A)
                 (A) (A) (A) (A) (A) (A) (A) (A) (A) (A) (A) (A)
                 (A) (A) (A) (A) (A) (A) (A) (A) (A) (A) (A) (A)
                 (A) (A) (A) (A) (A) (A) (A) (A) (A) (A) (A) (A)
                 (A) (A) (A) (A) (A)
 The electronic state is 1-A.
 Alpha  occ. eigenvalues -- -101.37875 -14.45210 -14.43452 -10.31069 -10.27912
 Alpha  occ. eigenvalues --  -10.25623 -10.23899 -10.23166 -10.17214  -9.29263
 Alpha  occ. eigenvalues --   -7.05105  -7.05083  -7.05060  -1.11194  -0.99510
 Alpha  occ. eigenvalues --   -0.84173  -0.81127  -0.77034  -0.68907  -0.67135
 Alpha  occ. eigenvalues --   -0.64648  -0.63558  -0.59168  -0.54808  -0.52311
 Alpha  occ. eigenvalues --   -0.52092  -0.49717  -0.48514  -0.47935  -0.45789
 Alpha  occ. eigenvalues --   -0.45464  -0.41838  -0.39101  -0.37170  -0.34121
 Alpha  occ. eigenvalues --   -0.30150  -0.18448  -0.18236  -0.18072
 Alpha virt. eigenvalues --   -0.06874  -0.03924  -0.02035  -0.01587  -0.00206
 Alpha virt. eigenvalues --    0.00757   0.01170   0.01271   0.02814   0.03713
 Alpha virt. eigenvalues --    0.04485   0.05860   0.06290   0.06618   0.07303
 Alpha virt. eigenvalues --    0.08374   0.09102   0.09375   0.09930   0.10340
 Alpha virt. eigenvalues --    0.11320   0.12045   0.12703   0.13340   0.13936
 Alpha virt. eigenvalues --    0.14395   0.14928   0.15248   0.15574   0.16309
 Alpha virt. eigenvalues --    0.16653   0.17037   0.17718   0.18021   0.18577
 Alpha virt. eigenvalues --    0.19027   0.19466   0.19910   0.20949   0.22248
 Alpha virt. eigenvalues --    0.22641   0.23468   0.23767   0.24065   0.24563
 Alpha virt. eigenvalues --    0.25872   0.26256   0.27633   0.28189   0.28767
 Alpha virt. eigenvalues --    0.29486   0.30375   0.35724   0.36619   0.37327
 Alpha virt. eigenvalues --    0.38273   0.39076   0.39643   0.42023   0.42888
 Alpha virt. eigenvalues --    0.44979   0.47034   0.48093   0.49315   0.52002
 Alpha virt. eigenvalues --    0.52946   0.53982   0.54455   0.55347   0.55588
 Alpha virt. eigenvalues --    0.57608   0.57969   0.58238   0.59323   0.61594
 Alpha virt. eigenvalues --    0.62453   0.63122   0.63425   0.65576   0.65924
 Alpha virt. eigenvalues --    0.67181   0.67489   0.68159   0.70074   0.71140
 Alpha virt. eigenvalues --    0.72570   0.74550   0.75950   0.77637   0.79202
 Alpha virt. eigenvalues --    0.81712   0.84657   0.86078   0.90047   0.90256
 Alpha virt. eigenvalues --    0.93210   0.94069   0.94530   0.98795   0.99953
 Alpha virt. eigenvalues --    1.02151   1.02446   1.02996   1.04618   1.04934
 Alpha virt. eigenvalues --    1.06730   1.08848   1.09702   1.11251   1.13158
 Alpha virt. eigenvalues --    1.17879   1.22843   1.26379   1.27001   1.29681
 Alpha virt. eigenvalues --    1.32129   1.35403   1.36480   1.38514   1.41240
 Alpha virt. eigenvalues --    1.44692   1.46924   1.47800   1.48860   1.51017
 Alpha virt. eigenvalues --    1.53978   1.54937   1.55744   1.57274   1.57453
 Alpha virt. eigenvalues --    1.58871   1.59299   1.60037   1.62039   1.63882
 Alpha virt. eigenvalues --    1.67104   1.69222   1.69504   1.73175   1.74683
 Alpha virt. eigenvalues --    1.76362   1.76547   1.77642   1.78825   1.82388
 Alpha virt. eigenvalues --    1.84291   1.89712   1.93245   1.96875   1.99691
 Alpha virt. eigenvalues --    2.01346   2.05104   2.06557   2.09148   2.10492
 Alpha virt. eigenvalues --    2.13644   2.16016   2.19032   2.23523   2.25571
 Alpha virt. eigenvalues --    2.28875   2.30511   2.33808   2.36766   2.40191
 Alpha virt. eigenvalues --    2.40379   2.40844   2.43919   2.44856   2.45597
 Alpha virt. eigenvalues --    2.46734   2.48205   2.48993   2.50437   2.51962
 Alpha virt. eigenvalues --    2.54128   2.56234   2.57461   2.58918   2.59214
 Alpha virt. eigenvalues --    2.60168   2.62893   2.65463   2.65673   2.69174
 Alpha virt. eigenvalues --    2.71769   2.73301   2.75978   2.77176   2.81276
 Alpha virt. eigenvalues --    2.83841   2.85844   2.87929   2.91891   2.92753
 Alpha virt. eigenvalues --    2.95191   2.95965   3.07879   3.18803   3.26474
 Alpha virt. eigenvalues --    3.36505   3.52834   3.55212   3.60218   3.64312
 Alpha virt. eigenvalues --    3.67671   3.70107   3.77896   3.78138   3.82580
 Alpha virt. eigenvalues --    3.85077   3.86058   3.87180   3.87326   4.07016
 Alpha virt. eigenvalues --    4.21261   4.68239   4.88708   4.92066   5.22012
 Alpha virt. eigenvalues --    9.85244  23.70597  23.84083  23.85172  23.86931
 Alpha virt. eigenvalues --   23.96853  24.14682  25.98126  26.04706  26.17932
 Alpha virt. eigenvalues --   35.41234  35.56577 215.83459
          Condensed to atoms (all electrons):
               1          2          3          4          5          6
     1  C    8.598994  -2.893671   0.061454  -0.669075   0.451066  -0.013077
     2  C   -2.893671   8.660497  -0.240355   0.970807  -0.164230   0.427477
     3  C    0.061454  -0.240355   5.259293   0.411172   0.019019   0.010243
     4  N   -0.669075   0.970807   0.411172   7.119530  -0.061810   0.025393
     5  H    0.451066  -0.164230   0.019019  -0.061810   0.442631  -0.002159
     6  H   -0.013077   0.427477   0.010243   0.025393  -0.002159   0.480203
     7  H    0.037376  -0.021704   0.436379  -0.034917   0.000229  -0.000036
     8  N    0.923506  -0.577584   0.420535  -0.553082   0.031770  -0.076791
     9  C   -0.876292   0.419346  -0.213840  -0.091168  -0.030152  -0.001297
    10  C    0.004550   0.097691   0.016028   0.045585   0.006008   0.000003
    11  H   -0.000029   0.013493   0.009229  -0.025161  -0.006921   0.000053
    12  H    0.052332  -0.026201   0.025841  -0.023838   0.000299   0.000027
    13  H    0.000425   0.002225   0.002952   0.025325   0.000084  -0.000001
    14  H    0.015200  -0.007804  -0.004165  -0.010199   0.000435   0.000012
    15  H   -0.005798  -0.002881  -0.000322  -0.023422  -0.000487   0.000008
    16  C    0.234694  -0.306054  -0.147462  -0.079916   0.000985  -0.009805
    17  H    0.023088  -0.023969  -0.013887  -0.008125  -0.000001  -0.000452
    18  H    0.010177  -0.013368  -0.017391  -0.004407   0.000008  -0.000511
    19  H   -0.000490  -0.000400   0.028483   0.011273  -0.000005  -0.000040
    20  Cl   0.105084  -0.132690   0.032889   0.048832   0.115150   0.000656
               7          8          9         10         11         12
     1  C    0.037376   0.923506  -0.876292   0.004550  -0.000029   0.052332
     2  C   -0.021704  -0.577584   0.419346   0.097691   0.013493  -0.026201
     3  C    0.436379   0.420535  -0.213840   0.016028   0.009229   0.025841
     4  N   -0.034917  -0.553082  -0.091168   0.045585  -0.025161  -0.023838
     5  H    0.000229   0.031770  -0.030152   0.006008  -0.006921   0.000299
     6  H   -0.000036  -0.076791  -0.001297   0.000003   0.000053   0.000027
     7  H    0.478860  -0.046405  -0.008620   0.005759   0.000185   0.000529
     8  N   -0.046405   6.901465  -0.230856   0.005651  -0.005140   0.016538
     9  C   -0.008620  -0.230856   7.646182  -0.724073   0.343177   0.245914
    10  C    0.005759   0.005651  -0.724073   5.738673  -0.003110   0.015000
    11  H    0.000185  -0.005140   0.343177  -0.003110   0.430146  -0.019069
    12  H    0.000529   0.016538   0.245914   0.015000  -0.019069   0.578454
    13  H   -0.000029  -0.000243  -0.100627   0.449099  -0.003669  -0.002734
    14  H   -0.000017   0.004418  -0.037518   0.424680  -0.008685   0.006408
    15  H   -0.000196  -0.004345   0.074771   0.324624   0.005767  -0.010003
    16  C   -0.005720   0.318402  -0.104614   0.020625   0.000772   0.005276
    17  H   -0.000068  -0.033473  -0.000442  -0.000274  -0.000003  -0.000002
    18  H   -0.000058  -0.033164  -0.000078  -0.000258  -0.000006  -0.000005
    19  H    0.001523  -0.048257   0.003290  -0.000067   0.000000   0.000003
    20  Cl   0.000309   0.022506  -0.240648   0.008809   0.042313   0.005630
              13         14         15         16         17         18
     1  C    0.000425   0.015200  -0.005798   0.234694   0.023088   0.010177
     2  C    0.002225  -0.007804  -0.002881  -0.306054  -0.023969  -0.013368
     3  C    0.002952  -0.004165  -0.000322  -0.147462  -0.013887  -0.017391
     4  N    0.025325  -0.010199  -0.023422  -0.079916  -0.008125  -0.004407
     5  H    0.000084   0.000435  -0.000487   0.000985  -0.000001   0.000008
     6  H   -0.000001   0.000012   0.000008  -0.009805  -0.000452  -0.000511
     7  H   -0.000029  -0.000017  -0.000196  -0.005720  -0.000068  -0.000058
     8  N   -0.000243   0.004418  -0.004345   0.318402  -0.033473  -0.033164
     9  C   -0.100627  -0.037518   0.074771  -0.104614  -0.000442  -0.000078
    10  C    0.449099   0.424680   0.324624   0.020625  -0.000274  -0.000258
    11  H   -0.003669  -0.008685   0.005767   0.000772  -0.000003  -0.000006
    12  H   -0.002734   0.006408  -0.010003   0.005276  -0.000002  -0.000005
    13  H    0.513516  -0.014722  -0.030999   0.000049   0.000000   0.000000
    14  H   -0.014722   0.443965  -0.031025   0.000646  -0.000001   0.000001
    15  H   -0.030999  -0.031025   0.594665  -0.001424   0.000003   0.000001
    16  C    0.000049   0.000646  -0.001424   5.045927   0.423799   0.425556
    17  H    0.000000  -0.000001   0.000003   0.423799   0.501006  -0.033598
    18  H    0.000000   0.000001   0.000001   0.425556  -0.033598   0.496241
    19  H    0.000000   0.000001   0.000005   0.379087  -0.022292  -0.022627
    20  Cl  -0.000479   0.008570  -0.000070   0.004213   0.000014   0.000005
              19         20
     1  C   -0.000490   0.105084
     2  C   -0.000400  -0.132690
     3  C    0.028483   0.032889
     4  N    0.011273   0.048832
     5  H   -0.000005   0.115150
     6  H   -0.000040   0.000656
     7  H    0.001523   0.000309
     8  N   -0.048257   0.022506
     9  C    0.003290  -0.240648
    10  C   -0.000067   0.008809
    11  H    0.000000   0.042313
    12  H    0.000003   0.005630
    13  H    0.000000  -0.000479
    14  H    0.000001   0.008570
    15  H    0.000005  -0.000070
    16  C    0.379087   0.004213
    17  H   -0.022292   0.000014
    18  H   -0.022627   0.000005
    19  H    0.508914   0.000001
    20  Cl   0.000001  17.717500
 Mulliken charges:
               1
     1  C   -0.059513
     2  C   -0.180625
     3  C   -0.096095
     4  N   -0.072799
     5  H    0.198081
     6  H    0.160094
     7  H    0.156620
     8  N   -0.035452
     9  C   -0.072455
    10  C   -0.435002
    11  H    0.226658
    12  H    0.129600
    13  H    0.159829
    14  H    0.209802
    15  H    0.111130
    16  C   -0.205036
    17  H    0.188677
    18  H    0.193484
    19  H    0.161598
    20  Cl  -0.738597
 Sum of Mulliken charges =   0.00000
 Mulliken charges with hydrogens summed into heavy atoms:
               1
     1  C    0.138568
     2  C   -0.020531
     3  C    0.060526
     4  N   -0.072799
     8  N   -0.035452
     9  C    0.283803
    10  C    0.045759
    16  C    0.338724
    20  Cl  -0.738597
 Electronic spatial extent (au):  <R**2>=           1976.2340
 Charge=              0.0000 electrons
 Dipole moment (field-independent basis, Debye):
    X=            -15.5146    Y=             -4.7817    Z=             -0.1692  Tot=             16.2356
 Quadrupole moment (field-independent basis, Debye-Ang):
   XX=            -76.6473   YY=            -60.5249   ZZ=            -64.8992
   XY=            -15.4164   XZ=              0.2286   YZ=              3.0179
 Traceless Quadrupole moment (field-independent basis, Debye-Ang):
   XX=             -9.2901   YY=              6.8322   ZZ=              2.4580
   XY=            -15.4164   XZ=              0.2286   YZ=              3.0179
 Octapole moment (field-independent basis, Debye-Ang**2):
  XXX=           -195.4230  YYY=            -11.3040  ZZZ=             -0.5362  XYY=            -29.4521
  XXY=            -39.9903  XXZ=              3.0835  XZZ=             -8.4627  YZZ=             -3.6009
  YYZ=             -0.5960  XYZ=             -2.1346
 Hexadecapole moment (field-independent basis, Debye-Ang**3):
 XXXX=          -2070.0423 YYYY=           -597.2651 ZZZZ=           -151.0939 XXXY=           -163.1758
 XXXZ=              1.5333 YYYX=            -47.1069 YYYZ=             16.7579 ZZZX=             -2.0390
 ZZZY=              3.6010 XXYY=           -441.8772 XXZZ=           -354.3406 YYZZ=           -127.8661
 XXYZ=              9.8222 YYXZ=              0.7935 ZZXY=            -10.3960
 N-N= 5.138198111849D+02 E-N=-2.922106323440D+03  KE= 8.024381438470D+02
 1\1\GINC-CX1-29-14-3\FOpt\RB3LYP\6-311+G(d,p)\C6H11Cl1N2\CJS14\17-Apr-
 2015\0\\# opt=modredundant b3lyp/6-311+g(d,p) geom=(checkpoint,newdefi
 nition) integral=grid=ultrafine scf=conver=9 empiricaldispersion=gd3bj
 \\Emim+ (optimised with b3lyp+gd3bj / aug-cc-pvtz) and Cl- in the back
  position created on; Thu Apr 16 19:11:52 BST 2015, from; CJS1_emim-cl
 _B_init.com\\0,1\C,-0.0142133015,0.7739730434,-0.1819604529\C,-1.21101
 81488,1.3856225831,0.0470291291\C,-1.5960560271,-0.7801618361,-0.16297
 0057\N,-0.2867197541,-0.5766396941,-0.3132281441\H,1.0316770788,1.1103
 674831,-0.2771170294\H,-1.4520251284,2.4233354689,0.1980354625\H,-2.09
 72506065,-1.7313080717,-0.2124111425\N,-2.1892791894,0.4022093197,0.05
 55562045\C,0.7313863419,-1.6352500144,-0.5183731124\C,1.3248962287,-2.
 0942199004,0.8057868904\H,1.5165675354,-1.1843499718,-1.1304078646\H,0
 .2350739922,-2.444262962,-1.0585154155\H,2.0411711501,-2.8952527888,0.
 6122686345\H,1.8727426506,-1.2687262433,1.2623439559\H,0.5574828598,-2
 .4692612101,1.4899502605\C,-3.6199745856,0.6199557369,0.2488791823\H,-
 3.7898701119,1.1152875718,1.2049145834\H,-4.0139249085,1.236545711,-0.
 5595094325\H,-4.1307419213,-0.3412921829,0.2488048213\Cl,3.1029127627,
 0.6860806344,-0.6088323083\\Version=ES64L-G09RevD.01\State=1-A\HF=-805
 .1052176\RMSD=3.502e-10\RMSF=7.772e-05\Dipole=-6.2092201,-1.2829295,0.
 7751541\Quadrupole=-8.4765609,7.7056375,0.7709234,-9.7421015,2.9526984
 ,2.30643\PG=C01 [X(C6H11Cl1N2)]\\@


 ABALONE: AN EXPRESSION OF DISBELIEF.
 Job cpu time:       0 days  1 hours 46 minutes 24.3 seconds.
 File lengths (MBytes):  RWF=     35 Int=      0 D2E=      0 Chk=      6 Scr=      1
 Normal termination of Gaussian 09 at Fri Apr 17 23:47:48 2015.
