 Entering Gaussian System, Link 0=g09
 Input=/work/cjs14/CJS1_emim_-_6-311+g-d-p-_gd3bj_pop-nbo-full-_.com
 Output=/work/cjs14/CJS1_emim_-_6-311+g-d-p-_gd3bj_pop-nbo-full-_.log
 Initial command:
 /apps/gaussian/g09_d01/g09/l1.exe /tmp/pbs.9462313.cx1b/Gau-30713.inp -scrdir=/tmp/pbs.9462313.cx1b/
 Entering Link 1 = /apps/gaussian/g09_d01/g09/l1.exe PID=     30714.
  
 Copyright (c) 1988,1990,1992,1993,1995,1998,2003,2009,2013,
            Gaussian, Inc.  All Rights Reserved.
  
 This is part of the Gaussian(R) 09 program.  It is based on
 the Gaussian(R) 03 system (copyright 2003, Gaussian, Inc.),
 the Gaussian(R) 98 system (copyright 1998, Gaussian, Inc.),
 the Gaussian(R) 94 system (copyright 1995, Gaussian, Inc.),
 the Gaussian 92(TM) system (copyright 1992, Gaussian, Inc.),
 the Gaussian 90(TM) system (copyright 1990, Gaussian, Inc.),
 the Gaussian 88(TM) system (copyright 1988, Gaussian, Inc.),
 the Gaussian 86(TM) system (copyright 1986, Carnegie Mellon
 University), and the Gaussian 82(TM) system (copyright 1983,
 Carnegie Mellon University). Gaussian is a federally registered
 trademark of Gaussian, Inc.
  
 This software contains proprietary and confidential information,
 including trade secrets, belonging to Gaussian, Inc.
  
 This software is provided under written license and may be
 used, copied, transmitted, or stored only in accord with that
 written license.
  
 The following legend is applicable only to US Government
 contracts under FAR:
  
                    RESTRICTED RIGHTS LEGEND
  
 Use, reproduction and disclosure by the US Government is
 subject to restrictions as set forth in subparagraphs (a)
 and (c) of the Commercial Computer Software - Restricted
 Rights clause in FAR 52.227-19.
  
 Gaussian, Inc.
 340 Quinnipiac St., Bldg. 40, Wallingford CT 06492
  
  
 ---------------------------------------------------------------
 Warning -- This program may not be used in any manner that
 competes with the business of Gaussian, Inc. or will provide
 assistance to any competitor of Gaussian, Inc.  The licensee
 of this program is prohibited from giving any competitor of
 Gaussian, Inc. access to this program.  By using this program,
 the user acknowledges that Gaussian, Inc. is engaged in the
 business of creating and licensing software in the field of
 computational chemistry and represents and warrants to the
 licensee that it is not a competitor of Gaussian, Inc. and that
 it will not use this program in any manner prohibited above.
 ---------------------------------------------------------------
  

 Cite this work as:
 Gaussian 09, Revision D.01,
 M. J. Frisch, G. W. Trucks, H. B. Schlegel, G. E. Scuseria, 
 M. A. Robb, J. R. Cheeseman, G. Scalmani, V. Barone, B. Mennucci, 
 G. A. Petersson, H. Nakatsuji, M. Caricato, X. Li, H. P. Hratchian, 
 A. F. Izmaylov, J. Bloino, G. Zheng, J. L. Sonnenberg, M. Hada, 
 M. Ehara, K. Toyota, R. Fukuda, J. Hasegawa, M. Ishida, T. Nakajima, 
 Y. Honda, O. Kitao, H. Nakai, T. Vreven, J. A. Montgomery, Jr., 
 J. E. Peralta, F. Ogliaro, M. Bearpark, J. J. Heyd, E. Brothers, 
 K. N. Kudin, V. N. Staroverov, T. Keith, R. Kobayashi, J. Normand, 
 K. Raghavachari, A. Rendell, J. C. Burant, S. S. Iyengar, J. Tomasi, 
 M. Cossi, N. Rega, J. M. Millam, M. Klene, J. E. Knox, J. B. Cross, 
 V. Bakken, C. Adamo, J. Jaramillo, R. Gomperts, R. E. Stratmann, 
 O. Yazyev, A. J. Austin, R. Cammi, C. Pomelli, J. W. Ochterski, 
 R. L. Martin, K. Morokuma, V. G. Zakrzewski, G. A. Voth, 
 P. Salvador, J. J. Dannenberg, S. Dapprich, A. D. Daniels, 
 O. Farkas, J. B. Foresman, J. V. Ortiz, J. Cioslowski, 
 and D. J. Fox, Gaussian, Inc., Wallingford CT, 2013.
 
 ******************************************
 Gaussian 09:  ES64L-G09RevD.01 24-Apr-2013
                30-Apr-2015 
 ******************************************
 %nprocshared=8
 Will use up to    8 processors via shared memory.
 %mem=15000MB
 %chk=CJS1_emim_-_6-311+g-d-p-_gd3bj_pop-nbo-full-_.chk
 ----------------------------------------------------------------------
 # pop(nbo,full) GFInput b3lyp/6-311+g(d,p) geom=checkpoint integral=gr
 id=ultrafine scf=conver=9 empiricaldispersion=gd3bj
 ----------------------------------------------------------------------
 1/29=2,38=1/1;
 2/12=2,40=1/2;
 3/5=4,6=6,7=111,11=2,14=-4,16=1,24=10,25=1,30=1,74=-5,75=-5,124=41/1,2,3;
 4//1;
 5/5=2,6=9,38=5/2;
 6/7=3,28=1,40=1/1,7;
 99/5=1,9=1/99;
 ----------------------------------------------------------------------
 1-ethyl-3-methylimidazolium created on; Thu Apr 16 12:12:40 BST 2015, 
 from; CJS1_emim_-_init.com created on; Thu Apr 30 01:34:54 BST 2015, f
 rom; CJS1_emim_-_6-311+g-d-p-_gd3bj_opt_.com
 ----------------------------------------------------------------------
 Structure from the checkpoint file:  "CJS1_emim_-_6-311+g-d-p-_gd3bj_pop-nbo-full-_.chk"
 Charge =  1 Multiplicity = 1
 Redundant internal coordinates found in file.
 C,0,-2.1669264574,-0.6882550074,0.0318280267
 C,0,-0.8061331532,-0.7248027898,0.0407641528
 C,0,-1.4322980388,1.3923496654,-0.0197155764
 N,0,-2.5382336685,0.6425043723,-0.0089823311
 H,0,-2.8910157164,-1.4844092628,0.0457785941
 H,0,-0.1235817839,-1.5570101731,0.0616729751
 H,0,-1.4040113704,2.4685740701,-0.0501779687
 N,0,-0.3656109903,0.5854561075,0.0088762219
 C,0,-3.9291886848,1.1514791823,0.0112461013
 C,0,-4.5735933118,0.9904922358,1.3823220911
 H,0,-4.4759223012,0.6085205421,-0.7606887855
 H,0,-3.8833164457,2.198038866,-0.2904783991
 H,0,-5.5911733355,1.3832840013,1.3476114099
 H,0,-4.629346332,-0.058716101,1.6785002441
 H,0,-4.020288727,1.5406398087,2.145836505
 C,0,1.039734781,1.0146435934,-0.0025623575
 H,0,1.5388912437,0.6391892927,0.8897138496
 H,0,1.5289157002,0.62975065,-0.8964983505
 H,0,1.0764416321,2.1018309963,-0.0081114927
 Recover connectivity data from disk.
                          Input orientation:                          
 ---------------------------------------------------------------------
 Center     Atomic      Atomic             Coordinates (Angstroms)
 Number     Number       Type             X           Y           Z
 ---------------------------------------------------------------------
      1          6           0       -2.166926   -0.688255    0.031828
      2          6           0       -0.806133   -0.724803    0.040764
      3          6           0       -1.432298    1.392350   -0.019716
      4          7           0       -2.538234    0.642504   -0.008982
      5          1           0       -2.891016   -1.484409    0.045779
      6          1           0       -0.123582   -1.557010    0.061673
      7          1           0       -1.404011    2.468574   -0.050178
      8          7           0       -0.365611    0.585456    0.008876
      9          6           0       -3.929189    1.151479    0.011246
     10          6           0       -4.573593    0.990492    1.382322
     11          1           0       -4.475922    0.608521   -0.760689
     12          1           0       -3.883316    2.198039   -0.290478
     13          1           0       -5.591173    1.383284    1.347611
     14          1           0       -4.629346   -0.058716    1.678500
     15          1           0       -4.020289    1.540640    2.145837
     16          6           0        1.039735    1.014644   -0.002562
     17          1           0        1.538891    0.639189    0.889714
     18          1           0        1.528916    0.629751   -0.896498
     19          1           0        1.076442    2.101831   -0.008111
 ---------------------------------------------------------------------
                    Distance matrix (angstroms):
                    1          2          3          4          5
     1  C    0.000000
     2  C    1.361313   0.000000
     3  C    2.207091   2.208636   0.000000
     4  N    1.382192   2.207301   1.336217   0.000000
     5  H    1.076272   2.218955   3.226126   2.156668   0.000000
     6  H    2.220559   1.076514   3.227706   3.267017   2.768432
     7  H    3.248743   3.250136   1.077027   2.150044   4.224508
     8  N    2.206265   1.382698   1.337803   2.173445   3.265482
     9  C    2.547668   3.643457   2.508673   1.481290   2.833179
    10  C    3.230181   4.351525   3.463370   2.489882   3.277583
    11  H    2.764267   3.985904   3.229099   2.078667   2.746393
    12  H    3.373510   4.256969   2.594213   2.075614   3.828597
    13  H    4.212841   5.389665   4.377889   3.421921   4.148407
    14  H    3.028425   4.212222   3.900083   2.777060   2.778520
    15  H    3.587751   4.460309   3.377766   2.765209   3.851808
    16  C    3.630940   2.536687   2.500780   3.597275   4.658154
    17  H    4.028792   2.842592   3.197230   4.174999   4.984574
    18  H    4.032143   2.857574   3.181052   4.162878   4.989324
    19  H    4.278506   3.396518   2.607158   3.898142   5.348340
                    6          7          8          9         10
     6  H    0.000000
     7  H    4.225794   0.000000
     8  N    2.156740   2.151255   0.000000
     9  C    4.671306   2.848690   3.608251   0.000000
    10  C    5.294949   3.779290   4.444944   1.523491   0.000000
    11  H    4.930382   3.660773   4.181796   1.090690   2.178976
    12  H    5.325412   2.505571   3.881274   1.090151   2.175526
    13  H    6.339836   4.545767   5.453003   2.145180   1.091311
    14  H    5.016067   4.447281   4.624072   2.175897   1.091635
    15  H    5.396619   3.539555   4.340005   2.171686   1.091679
    16  C    2.823267   2.843954   1.469466   4.970826   5.781690
    17  H    2.876241   3.590365   2.099021   5.561838   6.142357
    18  H    2.903578   3.563649   2.100213   5.557617   6.524092
    19  H    3.851239   2.507771   2.092653   5.095084   5.923789
                   11         12         13         14         15
    11  H    0.000000
    12  H    1.760355   0.000000
    13  H    2.507782   2.502786   0.000000
    14  H    2.533454   3.086484   1.764642   0.000000
    15  H    3.086153   2.527165   1.769068   1.774061   0.000000
    16  C    5.582308   5.071465   6.777006   6.009705   5.522330
    17  H    6.237207   5.763957   7.183395   6.257508   5.770177
    18  H    6.006411   5.667367   7.503300   6.710350   6.393684
    19  H    5.798715   4.968721   6.841885   6.329979   5.561572
                   16         17         18         19
    16  C    0.000000
    17  H    1.089165   0.000000
    18  H    1.089294   1.786265   0.000000
    19  H    1.087821   1.777434   1.777916   0.000000
 Stoichiometry    C6H11N2(1+)
 Framework group  C1[X(C6H11N2)]
 Deg. of freedom    51
 Full point group                 C1      NOp   1
 Largest Abelian subgroup         C1      NOp   1
 Largest concise Abelian subgroup C1      NOp   1
                         Standard orientation:                         
 ---------------------------------------------------------------------
 Center     Atomic      Atomic             Coordinates (Angstroms)
 Number     Number       Type             X           Y           Z
 ---------------------------------------------------------------------
      1          6           0       -0.163621    1.302549    0.150552
      2          6           0        1.176511    1.227380   -0.076535
      3          6           0        0.414414   -0.826898    0.201361
      4          7           0       -0.620273    0.009612    0.324442
      5          1           0       -0.819722    2.153834    0.207189
      6          1           0        1.905938    1.999344   -0.252293
      7          1           0        0.367979   -1.899488    0.287275
      8          7           0        1.518682   -0.111856   -0.041589
      9          6           0       -2.029608   -0.384423    0.554080
     10          6           0       -2.875004   -0.231131   -0.704026
     11          1           0       -2.401903    0.234454    1.371388
     12          1           0       -2.012395   -1.417111    0.902919
     13          1           0       -3.899474   -0.537595   -0.486082
     14          1           0       -2.900840    0.805243   -1.045976
     15          1           0       -2.495401   -0.857337   -1.513675
     16          6           0        2.871682   -0.653515   -0.229541
     17          1           0        3.245183   -0.359270   -1.209438
     18          1           0        3.526858   -0.271347    0.552286
     19          1           0        2.828669   -1.738792   -0.168907
 ---------------------------------------------------------------------
 Rotational constants (GHZ):      5.3412629      1.2609070      1.1142922
 Standard basis: 6-311+G(d,p) (5D, 7F)
 AO basis set in the form of general basis input (Overlap normalization):
      1 0
 S   6 1.00       0.000000000000
      0.4563240000D+04  0.1966650249D-02
      0.6820240000D+03  0.1523060193D-01
      0.1549730000D+03  0.7612690966D-01
      0.4445530000D+02  0.2608010331D+00
      0.1302900000D+02  0.6164620782D+00
      0.1827730000D+01  0.2210060280D+00
 SP   3 1.00       0.000000000000
      0.2096420000D+02  0.1146600807D+00  0.4024869267D-01
      0.4803310000D+01  0.9199996477D+00  0.2375939567D+00
      0.1459330000D+01 -0.3030682134D-02  0.8158538515D+00
 SP   1 1.00       0.000000000000
      0.4834560000D+00  0.1000000000D+01  0.1000000000D+01
 SP   1 1.00       0.000000000000
      0.1455850000D+00  0.1000000000D+01  0.1000000000D+01
 SP   1 1.00       0.000000000000
      0.4380000000D-01  0.1000000000D+01  0.1000000000D+01
 D   1 1.00       0.000000000000
      0.6260000000D+00  0.1000000000D+01
 ****
      2 0
 S   6 1.00       0.000000000000
      0.4563240000D+04  0.1966650249D-02
      0.6820240000D+03  0.1523060193D-01
      0.1549730000D+03  0.7612690966D-01
      0.4445530000D+02  0.2608010331D+00
      0.1302900000D+02  0.6164620782D+00
      0.1827730000D+01  0.2210060280D+00
 SP   3 1.00       0.000000000000
      0.2096420000D+02  0.1146600807D+00  0.4024869267D-01
      0.4803310000D+01  0.9199996477D+00  0.2375939567D+00
      0.1459330000D+01 -0.3030682134D-02  0.8158538515D+00
 SP   1 1.00       0.000000000000
      0.4834560000D+00  0.1000000000D+01  0.1000000000D+01
 SP   1 1.00       0.000000000000
      0.1455850000D+00  0.1000000000D+01  0.1000000000D+01
 SP   1 1.00       0.000000000000
      0.4380000000D-01  0.1000000000D+01  0.1000000000D+01
 D   1 1.00       0.000000000000
      0.6260000000D+00  0.1000000000D+01
 ****
      3 0
 S   6 1.00       0.000000000000
      0.4563240000D+04  0.1966650249D-02
      0.6820240000D+03  0.1523060193D-01
      0.1549730000D+03  0.7612690966D-01
      0.4445530000D+02  0.2608010331D+00
      0.1302900000D+02  0.6164620782D+00
      0.1827730000D+01  0.2210060280D+00
 SP   3 1.00       0.000000000000
      0.2096420000D+02  0.1146600807D+00  0.4024869267D-01
      0.4803310000D+01  0.9199996477D+00  0.2375939567D+00
      0.1459330000D+01 -0.3030682134D-02  0.8158538515D+00
 SP   1 1.00       0.000000000000
      0.4834560000D+00  0.1000000000D+01  0.1000000000D+01
 SP   1 1.00       0.000000000000
      0.1455850000D+00  0.1000000000D+01  0.1000000000D+01
 SP   1 1.00       0.000000000000
      0.4380000000D-01  0.1000000000D+01  0.1000000000D+01
 D   1 1.00       0.000000000000
      0.6260000000D+00  0.1000000000D+01
 ****
      4 0
 S   6 1.00       0.000000000000
      0.6293480000D+04  0.1969788147D-02
      0.9490440000D+03  0.1496128592D-01
      0.2187760000D+03  0.7350053084D-01
      0.6369160000D+02  0.2489367658D+00
      0.1882820000D+02  0.6024594331D+00
      0.2720230000D+01  0.2562017589D+00
 SP   3 1.00       0.000000000000
      0.3063310000D+02  0.1119060795D+00  0.3831191864D-01
      0.7026140000D+01  0.9216666549D+00  0.2374031155D+00
      0.2112050000D+01 -0.2569191826D-02  0.8175923978D+00
 SP   1 1.00       0.000000000000
      0.6840090000D+00  0.1000000000D+01  0.1000000000D+01
 SP   1 1.00       0.000000000000
      0.2008780000D+00  0.1000000000D+01  0.1000000000D+01
 SP   1 1.00       0.000000000000
      0.6390000000D-01  0.1000000000D+01  0.1000000000D+01
 D   1 1.00       0.000000000000
      0.9130000000D+00  0.1000000000D+01
 ****
      5 0
 S   3 1.00       0.000000000000
      0.3386500000D+02  0.2549381454D-01
      0.5094790000D+01  0.1903731086D+00
      0.1158790000D+01  0.8521614860D+00
 S   1 1.00       0.000000000000
      0.3258400000D+00  0.1000000000D+01
 S   1 1.00       0.000000000000
      0.1027410000D+00  0.1000000000D+01
 P   1 1.00       0.000000000000
      0.7500000000D+00  0.1000000000D+01
 ****
      6 0
 S   3 1.00       0.000000000000
      0.3386500000D+02  0.2549381454D-01
      0.5094790000D+01  0.1903731086D+00
      0.1158790000D+01  0.8521614860D+00
 S   1 1.00       0.000000000000
      0.3258400000D+00  0.1000000000D+01
 S   1 1.00       0.000000000000
      0.1027410000D+00  0.1000000000D+01
 P   1 1.00       0.000000000000
      0.7500000000D+00  0.1000000000D+01
 ****
      7 0
 S   3 1.00       0.000000000000
      0.3386500000D+02  0.2549381454D-01
      0.5094790000D+01  0.1903731086D+00
      0.1158790000D+01  0.8521614860D+00
 S   1 1.00       0.000000000000
      0.3258400000D+00  0.1000000000D+01
 S   1 1.00       0.000000000000
      0.1027410000D+00  0.1000000000D+01
 P   1 1.00       0.000000000000
      0.7500000000D+00  0.1000000000D+01
 ****
      8 0
 S   6 1.00       0.000000000000
      0.6293480000D+04  0.1969788147D-02
      0.9490440000D+03  0.1496128592D-01
      0.2187760000D+03  0.7350053084D-01
      0.6369160000D+02  0.2489367658D+00
      0.1882820000D+02  0.6024594331D+00
      0.2720230000D+01  0.2562017589D+00
 SP   3 1.00       0.000000000000
      0.3063310000D+02  0.1119060795D+00  0.3831191864D-01
      0.7026140000D+01  0.9216666549D+00  0.2374031155D+00
      0.2112050000D+01 -0.2569191826D-02  0.8175923978D+00
 SP   1 1.00       0.000000000000
      0.6840090000D+00  0.1000000000D+01  0.1000000000D+01
 SP   1 1.00       0.000000000000
      0.2008780000D+00  0.1000000000D+01  0.1000000000D+01
 SP   1 1.00       0.000000000000
      0.6390000000D-01  0.1000000000D+01  0.1000000000D+01
 D   1 1.00       0.000000000000
      0.9130000000D+00  0.1000000000D+01
 ****
      9 0
 S   6 1.00       0.000000000000
      0.4563240000D+04  0.1966650249D-02
      0.6820240000D+03  0.1523060193D-01
      0.1549730000D+03  0.7612690966D-01
      0.4445530000D+02  0.2608010331D+00
      0.1302900000D+02  0.6164620782D+00
      0.1827730000D+01  0.2210060280D+00
 SP   3 1.00       0.000000000000
      0.2096420000D+02  0.1146600807D+00  0.4024869267D-01
      0.4803310000D+01  0.9199996477D+00  0.2375939567D+00
      0.1459330000D+01 -0.3030682134D-02  0.8158538515D+00
 SP   1 1.00       0.000000000000
      0.4834560000D+00  0.1000000000D+01  0.1000000000D+01
 SP   1 1.00       0.000000000000
      0.1455850000D+00  0.1000000000D+01  0.1000000000D+01
 SP   1 1.00       0.000000000000
      0.4380000000D-01  0.1000000000D+01  0.1000000000D+01
 D   1 1.00       0.000000000000
      0.6260000000D+00  0.1000000000D+01
 ****
     10 0
 S   6 1.00       0.000000000000
      0.4563240000D+04  0.1966650249D-02
      0.6820240000D+03  0.1523060193D-01
      0.1549730000D+03  0.7612690966D-01
      0.4445530000D+02  0.2608010331D+00
      0.1302900000D+02  0.6164620782D+00
      0.1827730000D+01  0.2210060280D+00
 SP   3 1.00       0.000000000000
      0.2096420000D+02  0.1146600807D+00  0.4024869267D-01
      0.4803310000D+01  0.9199996477D+00  0.2375939567D+00
      0.1459330000D+01 -0.3030682134D-02  0.8158538515D+00
 SP   1 1.00       0.000000000000
      0.4834560000D+00  0.1000000000D+01  0.1000000000D+01
 SP   1 1.00       0.000000000000
      0.1455850000D+00  0.1000000000D+01  0.1000000000D+01
 SP   1 1.00       0.000000000000
      0.4380000000D-01  0.1000000000D+01  0.1000000000D+01
 D   1 1.00       0.000000000000
      0.6260000000D+00  0.1000000000D+01
 ****
     11 0
 S   3 1.00       0.000000000000
      0.3386500000D+02  0.2549381454D-01
      0.5094790000D+01  0.1903731086D+00
      0.1158790000D+01  0.8521614860D+00
 S   1 1.00       0.000000000000
      0.3258400000D+00  0.1000000000D+01
 S   1 1.00       0.000000000000
      0.1027410000D+00  0.1000000000D+01
 P   1 1.00       0.000000000000
      0.7500000000D+00  0.1000000000D+01
 ****
     12 0
 S   3 1.00       0.000000000000
      0.3386500000D+02  0.2549381454D-01
      0.5094790000D+01  0.1903731086D+00
      0.1158790000D+01  0.8521614860D+00
 S   1 1.00       0.000000000000
      0.3258400000D+00  0.1000000000D+01
 S   1 1.00       0.000000000000
      0.1027410000D+00  0.1000000000D+01
 P   1 1.00       0.000000000000
      0.7500000000D+00  0.1000000000D+01
 ****
     13 0
 S   3 1.00       0.000000000000
      0.3386500000D+02  0.2549381454D-01
      0.5094790000D+01  0.1903731086D+00
      0.1158790000D+01  0.8521614860D+00
 S   1 1.00       0.000000000000
      0.3258400000D+00  0.1000000000D+01
 S   1 1.00       0.000000000000
      0.1027410000D+00  0.1000000000D+01
 P   1 1.00       0.000000000000
      0.7500000000D+00  0.1000000000D+01
 ****
     14 0
 S   3 1.00       0.000000000000
      0.3386500000D+02  0.2549381454D-01
      0.5094790000D+01  0.1903731086D+00
      0.1158790000D+01  0.8521614860D+00
 S   1 1.00       0.000000000000
      0.3258400000D+00  0.1000000000D+01
 S   1 1.00       0.000000000000
      0.1027410000D+00  0.1000000000D+01
 P   1 1.00       0.000000000000
      0.7500000000D+00  0.1000000000D+01
 ****
     15 0
 S   3 1.00       0.000000000000
      0.3386500000D+02  0.2549381454D-01
      0.5094790000D+01  0.1903731086D+00
      0.1158790000D+01  0.8521614860D+00
 S   1 1.00       0.000000000000
      0.3258400000D+00  0.1000000000D+01
 S   1 1.00       0.000000000000
      0.1027410000D+00  0.1000000000D+01
 P   1 1.00       0.000000000000
      0.7500000000D+00  0.1000000000D+01
 ****
     16 0
 S   6 1.00       0.000000000000
      0.4563240000D+04  0.1966650249D-02
      0.6820240000D+03  0.1523060193D-01
      0.1549730000D+03  0.7612690966D-01
      0.4445530000D+02  0.2608010331D+00
      0.1302900000D+02  0.6164620782D+00
      0.1827730000D+01  0.2210060280D+00
 SP   3 1.00       0.000000000000
      0.2096420000D+02  0.1146600807D+00  0.4024869267D-01
      0.4803310000D+01  0.9199996477D+00  0.2375939567D+00
      0.1459330000D+01 -0.3030682134D-02  0.8158538515D+00
 SP   1 1.00       0.000000000000
      0.4834560000D+00  0.1000000000D+01  0.1000000000D+01
 SP   1 1.00       0.000000000000
      0.1455850000D+00  0.1000000000D+01  0.1000000000D+01
 SP   1 1.00       0.000000000000
      0.4380000000D-01  0.1000000000D+01  0.1000000000D+01
 D   1 1.00       0.000000000000
      0.6260000000D+00  0.1000000000D+01
 ****
     17 0
 S   3 1.00       0.000000000000
      0.3386500000D+02  0.2549381454D-01
      0.5094790000D+01  0.1903731086D+00
      0.1158790000D+01  0.8521614860D+00
 S   1 1.00       0.000000000000
      0.3258400000D+00  0.1000000000D+01
 S   1 1.00       0.000000000000
      0.1027410000D+00  0.1000000000D+01
 P   1 1.00       0.000000000000
      0.7500000000D+00  0.1000000000D+01
 ****
     18 0
 S   3 1.00       0.000000000000
      0.3386500000D+02  0.2549381454D-01
      0.5094790000D+01  0.1903731086D+00
      0.1158790000D+01  0.8521614860D+00
 S   1 1.00       0.000000000000
      0.3258400000D+00  0.1000000000D+01
 S   1 1.00       0.000000000000
      0.1027410000D+00  0.1000000000D+01
 P   1 1.00       0.000000000000
      0.7500000000D+00  0.1000000000D+01
 ****
     19 0
 S   3 1.00       0.000000000000
      0.3386500000D+02  0.2549381454D-01
      0.5094790000D+01  0.1903731086D+00
      0.1158790000D+01  0.8521614860D+00
 S   1 1.00       0.000000000000
      0.3258400000D+00  0.1000000000D+01
 S   1 1.00       0.000000000000
      0.1027410000D+00  0.1000000000D+01
 P   1 1.00       0.000000000000
      0.7500000000D+00  0.1000000000D+01
 ****

 There are   250 symmetry adapted cartesian basis functions of A   symmetry.
 There are   242 symmetry adapted basis functions of A   symmetry.
   242 basis functions,   376 primitive gaussians,   250 cartesian basis functions
    30 alpha electrons       30 beta electrons
       nuclear repulsion energy       380.5363011448 Hartrees.
 NAtoms=   19 NActive=   19 NUniq=   19 SFac= 1.00D+00 NAtFMM=   60 NAOKFM=F Big=F
 Integral buffers will be    131072 words long.
 Raffenetti 2 integral format.
 Two-electron integral symmetry is turned on.
 Nuclear repulsion after empirical dispersion term =      380.5086614913 Hartrees.
 One-electron integrals computed using PRISM.
 NBasis=   242 RedAO= T EigKep=  2.11D-05  NBF=   242
 NBsUse=   242 1.00D-06 EigRej= -1.00D+00 NBFU=   242
 ExpMin= 4.38D-02 ExpMax= 6.29D+03 ExpMxC= 9.49D+02 IAcc=3 IRadAn=         5 AccDes= 0.00D+00
 Harris functional with IExCor=  402 and IRadAn=       5 diagonalized for initial guess.
 HarFok:  IExCor=  402 AccDes= 0.00D+00 IRadAn=         5 IDoV= 1 UseB2=F ITyADJ=14
 ICtDFT=  3500011 ScaDFX=  1.000000  1.000000  1.000000  1.000000
 FoFCou: FMM=F IPFlag=           0 FMFlag=      100000 FMFlg1=           0
         NFxFlg=           0 DoJE=T BraDBF=F KetDBF=T FulRan=T
         wScrn=  0.000000 ICntrl=     500 IOpCl=  0 I1Cent=   200000004 NGrid=           0
         NMat0=    1 NMatS0=      1 NMatT0=    0 NMatD0=    1 NMtDS0=    0 NMtDT0=    0
 Petite list used in FoFCou.
 Keep R1 ints in memory in canonical form, NReq=440399328.
 Requested convergence on RMS density matrix=1.00D-09 within 128 cycles.
 Requested convergence on MAX density matrix=1.00D-07.
 Requested convergence on             energy=1.00D-07.
 No special actions if energy rises.
 SCF Done:  E(RB3LYP) =  -344.664665022     A.U. after   15 cycles
            NFock= 15  Conv=0.20D-09     -V/T= 2.0046

 **********************************************************************

            Population analysis using the SCF density.

 **********************************************************************

 Orbital symmetries:
       Occupied  (A) (A) (A) (A) (A) (A) (A) (A) (A) (A) (A) (A)
                 (A) (A) (A) (A) (A) (A) (A) (A) (A) (A) (A) (A)
                 (A) (A) (A) (A) (A) (A)
       Virtual   (A) (A) (A) (A) (A) (A) (A) (A) (A) (A) (A) (A)
                 (A) (A) (A) (A) (A) (A) (A) (A) (A) (A) (A) (A)
                 (A) (A) (A) (A) (A) (A) (A) (A) (A) (A) (A) (A)
                 (A) (A) (A) (A) (A) (A) (A) (A) (A) (A) (A) (A)
                 (A) (A) (A) (A) (A) (A) (A) (A) (A) (A) (A) (A)
                 (A) (A) (A) (A) (A) (A) (A) (A) (A) (A) (A) (A)
                 (A) (A) (A) (A) (A) (A) (A) (A) (A) (A) (A) (A)
                 (A) (A) (A) (A) (A) (A) (A) (A) (A) (A) (A) (A)
                 (A) (A) (A) (A) (A) (A) (A) (A) (A) (A) (A) (A)
                 (A) (A) (A) (A) (A) (A) (A) (A) (A) (A) (A) (A)
                 (A) (A) (A) (A) (A) (A) (A) (A) (A) (A) (A) (A)
                 (A) (A) (A) (A) (A) (A) (A) (A) (A) (A) (A) (A)
                 (A) (A) (A) (A) (A) (A) (A) (A) (A) (A) (A) (A)
                 (A) (A) (A) (A) (A) (A) (A) (A) (A) (A) (A) (A)
                 (A) (A) (A) (A) (A) (A) (A) (A) (A) (A) (A) (A)
                 (A) (A) (A) (A) (A) (A) (A) (A) (A) (A) (A) (A)
                 (A) (A) (A) (A) (A) (A) (A) (A) (A) (A) (A) (A)
                 (A) (A) (A) (A) (A) (A) (A) (A)
 The electronic state is 1-A.
 Alpha  occ. eigenvalues --  -14.57801 -14.57381 -10.44148 -10.39272 -10.39201
 Alpha  occ. eigenvalues --  -10.38353 -10.38133 -10.31269  -1.24509  -1.12671
 Alpha  occ. eigenvalues --   -0.97469  -0.94533  -0.89686  -0.82773  -0.80079
 Alpha  occ. eigenvalues --   -0.78156  -0.72298  -0.67177  -0.65278  -0.64711
 Alpha  occ. eigenvalues --   -0.63592  -0.62581  -0.60615  -0.59633  -0.57736
 Alpha  occ. eigenvalues --   -0.55212  -0.53176  -0.51487  -0.47509  -0.43806
 Alpha virt. eigenvalues --   -0.19238  -0.16004  -0.13381  -0.11699  -0.10961
 Alpha virt. eigenvalues --   -0.10088  -0.09487  -0.08665  -0.08528  -0.07572
 Alpha virt. eigenvalues --   -0.06686  -0.06447  -0.05403  -0.04750  -0.04142
 Alpha virt. eigenvalues --   -0.03110  -0.02932  -0.01856  -0.01793  -0.01252
 Alpha virt. eigenvalues --   -0.00503   0.00666   0.01136   0.02330   0.02817
 Alpha virt. eigenvalues --    0.03657   0.03986   0.04204   0.04961   0.05262
 Alpha virt. eigenvalues --    0.05686   0.06322   0.07207   0.08020   0.08093
 Alpha virt. eigenvalues --    0.08563   0.09275   0.09822   0.10185   0.10526
 Alpha virt. eigenvalues --    0.11293   0.12232   0.13617   0.14776   0.15242
 Alpha virt. eigenvalues --    0.15450   0.16471   0.17600   0.21937   0.22836
 Alpha virt. eigenvalues --    0.24244   0.26042   0.27033   0.27745   0.28453
 Alpha virt. eigenvalues --    0.29753   0.32605   0.35736   0.36459   0.37603
 Alpha virt. eigenvalues --    0.39136   0.39993   0.42038   0.42607   0.43386
 Alpha virt. eigenvalues --    0.44020   0.45559   0.46618   0.48373   0.48583
 Alpha virt. eigenvalues --    0.50944   0.51177   0.52212   0.52763   0.54021
 Alpha virt. eigenvalues --    0.54307   0.57425   0.58122   0.59181   0.59930
 Alpha virt. eigenvalues --    0.61811   0.64829   0.65152   0.67968   0.68490
 Alpha virt. eigenvalues --    0.72030   0.76599   0.78177   0.79264   0.81007
 Alpha virt. eigenvalues --    0.81490   0.84909   0.88514   0.89905   0.90081
 Alpha virt. eigenvalues --    0.90961   0.96022   0.99613   1.05656   1.09578
 Alpha virt. eigenvalues --    1.11452   1.13370   1.15868   1.23174   1.24296
 Alpha virt. eigenvalues --    1.27723   1.27874   1.30566   1.32480   1.35646
 Alpha virt. eigenvalues --    1.37149   1.37589   1.38677   1.40364   1.42870
 Alpha virt. eigenvalues --    1.43095   1.43924   1.45612   1.46812   1.47031
 Alpha virt. eigenvalues --    1.47966   1.49963   1.52399   1.54503   1.56141
 Alpha virt. eigenvalues --    1.59217   1.61138   1.61251   1.63198   1.64202
 Alpha virt. eigenvalues --    1.65781   1.69384   1.70156   1.76022   1.80362
 Alpha virt. eigenvalues --    1.84027   1.86057   1.87317   1.93097   1.93987
 Alpha virt. eigenvalues --    1.94657   1.97277   2.00487   2.03631   2.04727
 Alpha virt. eigenvalues --    2.09123   2.12426   2.14636   2.18493   2.22924
 Alpha virt. eigenvalues --    2.25455   2.28181   2.30909   2.32624   2.34173
 Alpha virt. eigenvalues --    2.34867   2.34971   2.37073   2.37743   2.39666
 Alpha virt. eigenvalues --    2.40527   2.42159   2.43695   2.46259   2.46879
 Alpha virt. eigenvalues --    2.47796   2.49032   2.50193   2.55282   2.58168
 Alpha virt. eigenvalues --    2.59128   2.62464   2.63588   2.64146   2.68301
 Alpha virt. eigenvalues --    2.69285   2.74406   2.77934   2.80528   2.81117
 Alpha virt. eigenvalues --    2.82725   2.94461   3.04683   3.12718   3.21890
 Alpha virt. eigenvalues --    3.39384   3.41385   3.47389   3.50743   3.57112
 Alpha virt. eigenvalues --    3.58712   3.62625   3.65196   3.66997   3.69208
 Alpha virt. eigenvalues --    3.73538   3.75150   3.75602   3.94095   4.07212
 Alpha virt. eigenvalues --    4.55250   4.74910   4.78710   5.09020  23.57578
 Alpha virt. eigenvalues --   23.69037  23.72500  23.75046  23.82379  24.00724
 Alpha virt. eigenvalues --   35.27688  35.43542
     Molecular Orbital Coefficients:
                           1         2         3         4         5
                           O         O         O         O         O
     Eigenvalues --   -14.57801 -14.57381 -10.44148 -10.39272 -10.39201
   1 1   C  1S         -0.00001   0.00001  -0.00003   0.34754   0.44280
   2        2S          0.00005   0.00002  -0.00003   0.28618   0.36413
   3        2PX         0.00007  -0.00016  -0.00006   0.00035  -0.00088
   4        2PY         0.00005  -0.00042   0.00007  -0.00047  -0.00055
   5        2PZ        -0.00001   0.00006   0.00000  -0.00004   0.00019
   6        3S         -0.00037   0.00039  -0.00002   0.01194   0.01642
   7        3PX        -0.00089   0.00049   0.00017  -0.00207   0.00380
   8        3PY         0.00009   0.00111  -0.00036   0.00071   0.00048
   9        3PZ         0.00014  -0.00015   0.00001   0.00034  -0.00068
  10        4S          0.00000   0.00320  -0.00104  -0.00603  -0.01704
  11        4PX        -0.00106   0.00066   0.00109  -0.00017  -0.00677
  12        4PY         0.00224  -0.00365  -0.00081   0.00148   0.00420
  13        4PZ         0.00003   0.00006  -0.00015  -0.00013   0.00087
  14        5S          0.01658  -0.01990  -0.00501  -0.00777  -0.04099
  15        5PX         0.00158  -0.00127  -0.00246   0.00244  -0.00549
  16        5PY        -0.00318   0.00374  -0.00030   0.00149   0.00560
  17        5PZ         0.00010   0.00046   0.00108  -0.00018   0.00073
  18        6D 0       -0.00010   0.00011  -0.00010  -0.00048  -0.00194
  19        6D+1        0.00007  -0.00009   0.00001   0.00008  -0.00083
  20        6D-1        0.00001   0.00018   0.00000  -0.00003   0.00013
  21        6D+2       -0.00044   0.00089  -0.00020  -0.00110   0.00184
  22        6D-2       -0.00028  -0.00053  -0.00017  -0.00056  -0.00140
  23 2   C  1S          0.00001  -0.00001  -0.00003   0.44269  -0.34768
  24        2S          0.00002   0.00005  -0.00003   0.36441  -0.28582
  25        2PX         0.00013  -0.00007   0.00007  -0.00017  -0.00090
  26        2PY        -0.00044   0.00006   0.00006  -0.00058   0.00054
  27        2PZ         0.00001   0.00000  -0.00002   0.00007   0.00012
  28        3S          0.00041  -0.00035  -0.00010   0.01549  -0.01310
  29        3PX        -0.00042   0.00089  -0.00023   0.00114   0.00411
  30        3PY         0.00113  -0.00002  -0.00033   0.00070  -0.00077
  31        3PZ         0.00000  -0.00014   0.00006  -0.00023  -0.00066
  32        4S          0.00287   0.00008  -0.00046  -0.01021   0.01491
  33        4PX        -0.00113   0.00124  -0.00113   0.00271  -0.00685
  34        4PY        -0.00375   0.00174  -0.00098   0.00203  -0.00299
  35        4PZ         0.00045  -0.00035   0.00026  -0.00062   0.00138
  36        5S         -0.01600   0.02009   0.01227  -0.01033   0.03858
  37        5PX         0.00120  -0.00298  -0.00198  -0.00254  -0.00674
  38        5PY         0.00297  -0.00352  -0.00148   0.00248  -0.00436
  39        5PZ        -0.00045   0.00050   0.00015   0.00005   0.00135
  40        6D 0        0.00015  -0.00007  -0.00010  -0.00090   0.00173
  41        6D+1       -0.00015   0.00002  -0.00002  -0.00027   0.00099
  42        6D-1        0.00003  -0.00009  -0.00006  -0.00030   0.00018
  43        6D+2        0.00097  -0.00038  -0.00016  -0.00043  -0.00225
  44        6D-2        0.00032   0.00034   0.00018   0.00095  -0.00071
  45 3   C  1S          0.00000   0.00000   0.56291   0.00004   0.00000
  46        2S          0.00009   0.00010   0.46320   0.00003   0.00000
  47        2PX         0.00044  -0.00041   0.00005  -0.00001   0.00000
  48        2PY         0.00026   0.00031   0.00056  -0.00012  -0.00002
  49        2PZ        -0.00009   0.00005  -0.00005   0.00001   0.00000
  50        3S          0.00010   0.00008   0.01951  -0.00014   0.00001
  51        3PX        -0.00140   0.00130  -0.00012   0.00004  -0.00007
  52        3PY        -0.00089  -0.00109  -0.00012   0.00040   0.00007
  53        3PZ         0.00030  -0.00015   0.00002  -0.00003   0.00002
  54        4S          0.00578   0.00535  -0.00814  -0.00143   0.00001
  55        4PX         0.00260  -0.00204   0.00068  -0.00041   0.00152
  56        4PY         0.00396   0.00403  -0.00066   0.00094   0.00021
  57        4PZ        -0.00074  -0.00001  -0.00001  -0.00003  -0.00028
  58        5S         -0.00108  -0.00194  -0.02251  -0.00528  -0.00026
  59        5PX        -0.00369   0.00282  -0.00132  -0.00182   0.00125
  60        5PY        -0.00012  -0.00057  -0.00453  -0.00132  -0.00009
  61        5PZ         0.00072  -0.00036   0.00067   0.00027  -0.00022
  62        6D 0        0.00015   0.00020  -0.00184  -0.00016  -0.00002
  63        6D+1        0.00021   0.00002  -0.00041   0.00001   0.00001
  64        6D-1        0.00019  -0.00022  -0.00032  -0.00005   0.00002
  65        6D+2       -0.00045  -0.00022  -0.00100  -0.00034  -0.00005
  66        6D-2       -0.00118   0.00126   0.00004   0.00004  -0.00013
  67 4   N  1S         -0.00155   0.55737  -0.00007  -0.00003  -0.00004
  68        2S         -0.00122   0.46567  -0.00003  -0.00002  -0.00007
  69        2PX         0.00006   0.00006   0.00040   0.00010   0.00016
  70        2PY        -0.00004  -0.00002  -0.00026   0.00026   0.00018
  71        2PZ         0.00000  -0.00002  -0.00005  -0.00004  -0.00004
  72        3S         -0.00044   0.01644   0.00067   0.00045   0.00067
  73        3PX        -0.00044   0.00098  -0.00103  -0.00034  -0.00033
  74        3PY         0.00024  -0.00006   0.00065  -0.00065   0.00004
  75        3PZ         0.00004  -0.00022   0.00014   0.00011   0.00006
  76        4S         -0.00019  -0.01699  -0.00362  -0.00243   0.00018
  77        4PX        -0.00112  -0.00113  -0.00245   0.00072   0.00045
  78        4PY         0.00040   0.00017   0.00109  -0.00055  -0.00053
  79        4PZ         0.00028   0.00033   0.00045  -0.00004  -0.00005
  80        5S         -0.01088   0.01291   0.01471   0.00184   0.02703
  81        5PX        -0.01262   0.00733   0.00188   0.00266   0.01827
  82        5PY        -0.00338   0.00228  -0.00437   0.00586   0.00533
  83        5PZ         0.00235  -0.00141  -0.00057  -0.00097  -0.00380
  84        6D 0        0.00006  -0.00049   0.00070   0.00036   0.00035
  85        6D+1        0.00000  -0.00012   0.00021   0.00007   0.00013
  86        6D-1       -0.00004  -0.00003  -0.00009   0.00014   0.00010
  87        6D+2        0.00001  -0.00003  -0.00030   0.00041   0.00003
  88        6D-2        0.00024  -0.00019   0.00084  -0.00034  -0.00029
  89 5   H  1S          0.00001  -0.00014  -0.00009  -0.00001   0.00018
  90        2S         -0.00124  -0.00003   0.00056  -0.00341  -0.00389
  91        3S         -0.00065   0.00159   0.00145   0.00196   0.00063
  92        4PX        -0.00025   0.00007   0.00000  -0.00124  -0.00080
  93        4PY         0.00025   0.00039  -0.00011   0.00144   0.00164
  94        4PZ         0.00003  -0.00004   0.00001   0.00012   0.00003
  95 6   H  1S         -0.00016   0.00000  -0.00010   0.00004  -0.00018
  96        2S          0.00020  -0.00112   0.00066  -0.00431   0.00301
  97        3S          0.00147  -0.00058   0.00106   0.00210  -0.00014
  98        4PX        -0.00005   0.00026  -0.00001   0.00154  -0.00059
  99        4PY         0.00036   0.00021  -0.00010   0.00163  -0.00119
 100        4PZ        -0.00002  -0.00005   0.00001  -0.00037   0.00018
 101 7   H  1S         -0.00018  -0.00018  -0.00001  -0.00010  -0.00001
 102        2S         -0.00009  -0.00015  -0.00409   0.00032   0.00007
 103        3S          0.00149   0.00147   0.00197   0.00227   0.00040
 104        4PX        -0.00040   0.00035  -0.00014   0.00002  -0.00010
 105        4PY        -0.00034  -0.00040  -0.00252   0.00004   0.00002
 106        4PZ         0.00009  -0.00003   0.00020  -0.00001   0.00001
 107 8   N  1S          0.55737   0.00155  -0.00007  -0.00004   0.00003
 108        2S          0.46566   0.00137  -0.00003  -0.00003   0.00007
 109        2PX         0.00002  -0.00006  -0.00042  -0.00011   0.00012
 110        2PY        -0.00003  -0.00004  -0.00021   0.00031  -0.00012
 111        2PZ         0.00001   0.00001   0.00009   0.00000  -0.00001
 112        3S          0.01645  -0.00034   0.00069   0.00058  -0.00055
 113        3PX        -0.00101   0.00044   0.00108   0.00037  -0.00028
 114        3PY         0.00004   0.00021   0.00049  -0.00064  -0.00017
 115        3PZ         0.00017  -0.00009  -0.00022  -0.00002   0.00006
 116        4S         -0.01736  -0.00045  -0.00386  -0.00213  -0.00083
 117        4PX         0.00143   0.00118   0.00253  -0.00102   0.00056
 118        4PY         0.00016   0.00002   0.00089  -0.00074   0.00044
 119        4PZ        -0.00026  -0.00018  -0.00050   0.00022  -0.00013
 120        5S          0.01335  -0.01015   0.00770   0.00747  -0.02496
 121        5PX        -0.01072   0.00842  -0.00404  -0.00904   0.01712
 122        5PY         0.00389  -0.00434  -0.00352   0.00674  -0.00582
 123        5PZ         0.00152  -0.00118   0.00099   0.00119  -0.00244
 124        6D 0       -0.00048   0.00005   0.00065   0.00045  -0.00027
 125        6D+1       -0.00016   0.00004   0.00034   0.00003  -0.00007
 126        6D-1       -0.00009   0.00004   0.00018   0.00003   0.00001
 127        6D+2        0.00002  -0.00004  -0.00045   0.00047   0.00003
 128        6D-2        0.00014  -0.00024  -0.00072   0.00033  -0.00023
 129 9   C  1S          0.00000   0.00001  -0.00003  -0.00019  -0.00013
 130        2S          0.00001  -0.00002  -0.00001  -0.00014  -0.00011
 131        2PX         0.00005   0.00028   0.00000   0.00002  -0.00001
 132        2PY         0.00001   0.00009   0.00006  -0.00002  -0.00002
 133        2PZ        -0.00001  -0.00008  -0.00002  -0.00001  -0.00001
 134        3S         -0.00001  -0.00006  -0.00015  -0.00036  -0.00001
 135        3PX        -0.00024  -0.00044  -0.00010  -0.00008   0.00004
 136        3PY        -0.00004  -0.00021  -0.00022   0.00004   0.00008
 137        3PZ         0.00005   0.00036   0.00013   0.00012   0.00002
 138        4S         -0.00146   0.00464  -0.00053   0.00292   0.00060
 139        4PX         0.00001   0.00184  -0.00071   0.00099   0.00023
 140        4PY        -0.00119   0.00032  -0.00044   0.00035  -0.00031
 141        4PZ        -0.00026  -0.00025  -0.00086  -0.00045  -0.00018
 142        5S         -0.01564  -0.00046  -0.01721  -0.00340   0.00614
 143        5PX        -0.00289   0.00193   0.00071   0.00235   0.00267
 144        5PY        -0.00079  -0.00003  -0.00069   0.00065   0.00090
 145        5PZ         0.00203   0.00129   0.00440   0.00198   0.00020
 146        6D 0       -0.00001   0.00026  -0.00002  -0.00002  -0.00002
 147        6D+1        0.00003   0.00009   0.00002  -0.00001   0.00000
 148        6D-1       -0.00004   0.00005  -0.00002   0.00000  -0.00002
 149        6D+2       -0.00006  -0.00036  -0.00004  -0.00007  -0.00001
 150        6D-2       -0.00005  -0.00023  -0.00016   0.00006   0.00002
 151 10  C  1S          0.00000   0.00000   0.00000   0.00000   0.00000
 152        2S          0.00000   0.00002   0.00000   0.00000   0.00000
 153        2PX         0.00000   0.00006   0.00000   0.00002   0.00000
 154        2PY        -0.00001  -0.00001   0.00001  -0.00001  -0.00002
 155        2PZ        -0.00001   0.00007   0.00000   0.00002   0.00000
 156        3S          0.00005  -0.00011   0.00015   0.00004  -0.00004
 157        3PX         0.00002  -0.00033   0.00002  -0.00008  -0.00001
 158        3PY         0.00004   0.00007  -0.00005   0.00004   0.00011
 159        3PZ         0.00002  -0.00037   0.00005  -0.00006  -0.00003
 160        4S         -0.00032   0.00016  -0.00125  -0.00073   0.00101
 161        4PX        -0.00025   0.00024  -0.00087  -0.00021  -0.00020
 162        4PY         0.00064   0.00006   0.00025  -0.00016  -0.00006
 163        4PZ        -0.00021  -0.00006  -0.00020  -0.00001   0.00049
 164        5S          0.00540   0.00642   0.01536   0.00814   0.00221
 165        5PX         0.00121   0.00151   0.00315   0.00142   0.00037
 166        5PY        -0.00009   0.00006  -0.00059  -0.00003  -0.00021
 167        5PZ         0.00078   0.00112   0.00255   0.00156   0.00044
 168        6D 0       -0.00001  -0.00006   0.00000   0.00001  -0.00001
 169        6D+1       -0.00002  -0.00016   0.00000  -0.00002   0.00000
 170        6D-1        0.00001   0.00000  -0.00001  -0.00002  -0.00002
 171        6D+2       -0.00003  -0.00001   0.00002   0.00001  -0.00001
 172        6D-2        0.00003   0.00005   0.00002   0.00001   0.00002
 173 11  H  1S         -0.00002  -0.00001   0.00002   0.00002  -0.00001
 174        2S          0.00032  -0.00105  -0.00001  -0.00040   0.00016
 175        3S         -0.00072   0.00103   0.00098   0.00017   0.00184
 176        4PX        -0.00002  -0.00014  -0.00002  -0.00007  -0.00002
 177        4PY         0.00002   0.00019   0.00002  -0.00001  -0.00003
 178        4PZ        -0.00004   0.00020   0.00001   0.00009  -0.00001
 179 12  H  1S          0.00002   0.00002  -0.00004   0.00005   0.00001
 180        2S         -0.00049  -0.00112  -0.00030  -0.00050  -0.00009
 181        3S         -0.00078   0.00071  -0.00023   0.00181   0.00177
 182        4PX         0.00003  -0.00004  -0.00004   0.00001   0.00001
 183        4PY        -0.00003  -0.00029  -0.00002  -0.00007   0.00001
 184        4PZ         0.00004   0.00008   0.00008   0.00003   0.00001
 185 13  H  1S         -0.00001  -0.00004   0.00000  -0.00002   0.00003
 186        2S          0.00008  -0.00003  -0.00001   0.00011  -0.00024
 187        3S         -0.00013   0.00018  -0.00048  -0.00022  -0.00012
 188        4PX         0.00003  -0.00005   0.00001   0.00001  -0.00003
 189        4PY        -0.00005  -0.00002  -0.00004   0.00002  -0.00003
 190        4PZ         0.00000   0.00004  -0.00001   0.00002   0.00000
 191 14  H  1S          0.00003   0.00005  -0.00004   0.00000   0.00003
 192        2S         -0.00028  -0.00029   0.00033   0.00016  -0.00013
 193        3S         -0.00074  -0.00018  -0.00044  -0.00037   0.00046
 194        4PX         0.00000  -0.00009   0.00007  -0.00004  -0.00002
 195        4PY         0.00004   0.00011  -0.00005  -0.00002   0.00004
 196        4PZ        -0.00002  -0.00005   0.00002  -0.00004  -0.00004
 197 15  H  1S          0.00000   0.00004  -0.00005  -0.00002  -0.00002
 198        2S          0.00007  -0.00024   0.00056   0.00023   0.00023
 199        3S         -0.00029  -0.00035  -0.00113  -0.00007  -0.00013
 200        4PX        -0.00003  -0.00003  -0.00005   0.00002  -0.00001
 201        4PY        -0.00002  -0.00009   0.00003   0.00001   0.00000
 202        4PZ         0.00000  -0.00010   0.00000   0.00002   0.00000
 203 16  C  1S          0.00002   0.00000  -0.00003  -0.00017   0.00007
 204        2S         -0.00003   0.00002  -0.00001  -0.00012   0.00006
 205        2PX        -0.00030  -0.00005   0.00001  -0.00002  -0.00001
 206        2PY         0.00013   0.00002   0.00007  -0.00003   0.00001
 207        2PZ         0.00004   0.00000  -0.00001   0.00001   0.00000
 208        3S          0.00004  -0.00007  -0.00012  -0.00033  -0.00005
 209        3PX         0.00065   0.00025   0.00005   0.00010   0.00006
 210        3PY        -0.00029  -0.00006  -0.00025   0.00009  -0.00007
 211        3PZ        -0.00008  -0.00003   0.00002  -0.00003   0.00000
 212        4S          0.00542  -0.00094  -0.00032   0.00326  -0.00015
 213        4PX        -0.00190  -0.00007   0.00045  -0.00108  -0.00002
 214        4PY         0.00064  -0.00048  -0.00004   0.00035   0.00008
 215        4PZ         0.00024   0.00002  -0.00016   0.00012  -0.00004
 216        5S          0.00789  -0.00718   0.00455   0.01171  -0.00688
 217        5PX        -0.00212   0.00224  -0.00129  -0.00325   0.00192
 218        5PY         0.00070  -0.00053   0.00033   0.00184  -0.00098
 219        5PZ         0.00026  -0.00035   0.00014   0.00046  -0.00024
 220        6D 0        0.00033   0.00002  -0.00001  -0.00003   0.00002
 221        6D+1        0.00013   0.00001  -0.00002   0.00000   0.00001
 222        6D-1       -0.00004  -0.00001  -0.00003   0.00000   0.00000
 223        6D+2       -0.00031  -0.00003   0.00002  -0.00008  -0.00002
 224        6D-2        0.00035   0.00008   0.00016  -0.00005   0.00002
 225 17  H  1S         -0.00001   0.00000   0.00003   0.00001   0.00001
 226        2S         -0.00109   0.00003  -0.00012  -0.00027  -0.00015
 227        3S          0.00104  -0.00065  -0.00022   0.00028  -0.00161
 228        4PX         0.00015   0.00003   0.00003   0.00005   0.00000
 229        4PY         0.00009   0.00003   0.00002  -0.00003   0.00001
 230        4PZ        -0.00028  -0.00001  -0.00003  -0.00007  -0.00003
 231 18  H  1S         -0.00001   0.00000   0.00003   0.00001   0.00001
 232        2S         -0.00110  -0.00001  -0.00010  -0.00023  -0.00011
 233        3S          0.00114  -0.00049  -0.00005   0.00023  -0.00160
 234        4PX         0.00023   0.00003   0.00003   0.00007   0.00001
 235        4PY         0.00011   0.00004   0.00002  -0.00002   0.00000
 236        4PZ         0.00021  -0.00001   0.00001   0.00005   0.00003
 237 19  H  1S          0.00003  -0.00001  -0.00008   0.00003   0.00000
 238        2S         -0.00113  -0.00018   0.00006  -0.00042  -0.00007
 239        3S          0.00081  -0.00074  -0.00105   0.00140  -0.00149
 240        4PX         0.00005  -0.00003   0.00005  -0.00002   0.00002
 241        4PY        -0.00032  -0.00001  -0.00003  -0.00007  -0.00004
 242        4PZ         0.00001   0.00000   0.00000   0.00001   0.00000
                           6         7         8         9        10
                           O         O         O         O         O
     Eigenvalues --   -10.38353 -10.38133 -10.31269  -1.24509  -1.12671
   1 1   C  1S          0.00022   0.00005   0.00000  -0.03510  -0.02457
   2        2S          0.00020   0.00006   0.00000  -0.05372  -0.03773
   3        2PX        -0.00003   0.00001  -0.00001   0.00780  -0.02111
   4        2PY        -0.00006  -0.00001   0.00001  -0.03503  -0.02967
   5        2PZ         0.00001   0.00000  -0.00001   0.00114   0.00572
   6        3S         -0.00014  -0.00013   0.00005   0.13508   0.09653
   7        3PX         0.00014  -0.00010  -0.00003   0.01085  -0.03301
   8        3PY         0.00044   0.00003  -0.00008  -0.05194  -0.04794
   9        3PZ        -0.00005   0.00001   0.00005   0.00177   0.00900
  10        4S         -0.00101   0.00227   0.00134   0.05050   0.06471
  11        4PX        -0.00117   0.00126   0.00213   0.00066   0.00326
  12        4PY         0.00159  -0.00125   0.00040  -0.00558  -0.00682
  13        4PZ         0.00017  -0.00010  -0.00025   0.00047   0.00018
  14        5S          0.01194  -0.00324   0.01472   0.03193   0.25457
  15        5PX         0.00414  -0.00199   0.00809  -0.00018   0.03628
  16        5PY         0.00229  -0.00179   0.00336  -0.00497  -0.03761
  17        5PZ         0.00018   0.00050  -0.00170  -0.00372  -0.00614
  18        6D 0       -0.00010   0.00002   0.00002  -0.01028  -0.00578
  19        6D+1       -0.00002   0.00000  -0.00002  -0.00187  -0.00034
  20        6D-1        0.00002  -0.00001  -0.00002  -0.00167  -0.00307
  21        6D+2        0.00010   0.00001   0.00002  -0.00708  -0.01189
  22        6D-2       -0.00023   0.00004  -0.00007  -0.00089   0.00869
  23 2   C  1S          0.00007   0.00018   0.00000  -0.03537   0.02382
  24        2S          0.00008   0.00016   0.00001  -0.05414   0.03658
  25        2PX        -0.00003   0.00000  -0.00001  -0.01058  -0.01884
  26        2PY         0.00000  -0.00007  -0.00001  -0.03437   0.03137
  27        2PZ         0.00000   0.00001   0.00001   0.00429   0.00103
  28        3S         -0.00018  -0.00010  -0.00004   0.13603  -0.09340
  29        3PX         0.00018   0.00000   0.00005  -0.01484  -0.02940
  30        3PY        -0.00001   0.00050   0.00005  -0.05111   0.05062
  31        3PZ        -0.00002  -0.00004  -0.00006   0.00617   0.00148
  32        4S          0.00204  -0.00235  -0.00178   0.05377  -0.06533
  33        4PX        -0.00119   0.00140   0.00084  -0.00331   0.00340
  34        4PY        -0.00141   0.00163  -0.00065  -0.00387   0.00705
  35        4PZ         0.00020  -0.00035   0.00002   0.00099  -0.00104
  36        5S         -0.00774   0.00702  -0.01461  -0.02310  -0.25192
  37        5PX         0.00369  -0.00130   0.00581   0.01311   0.04533
  38        5PY        -0.00349   0.00139  -0.00413   0.00031   0.03262
  39        5PZ        -0.00099   0.00012  -0.00067  -0.00024  -0.00871
  40        6D 0       -0.00001  -0.00004   0.00000  -0.01035   0.00605
  41        6D+1        0.00001  -0.00005   0.00001  -0.00211  -0.00098
  42        6D-1        0.00000  -0.00002  -0.00001  -0.00210   0.00053
  43        6D+2       -0.00004   0.00015  -0.00001  -0.00693   0.01332
  44        6D-2       -0.00005   0.00013   0.00000   0.00175   0.00656
  45 3   C  1S          0.00003   0.00003   0.00000  -0.05715  -0.00058
  46        2S          0.00004   0.00004  -0.00001  -0.08748  -0.00089
  47        2PX        -0.00006   0.00003   0.00001   0.00252  -0.07001
  48        2PY         0.00002   0.00003  -0.00001   0.04886   0.00456
  49        2PZ         0.00000  -0.00001   0.00002  -0.00389   0.01177
  50        3S         -0.00012  -0.00007   0.00010   0.22586   0.00239
  51        3PX         0.00039  -0.00028  -0.00009   0.00389  -0.10124
  52        3PY        -0.00023  -0.00027   0.00010   0.07144   0.00660
  53        3PZ         0.00000   0.00006  -0.00008  -0.00575   0.01695
  54        4S         -0.00076  -0.00188   0.00059   0.06768   0.00216
  55        4PX        -0.00188   0.00119   0.00064  -0.00096  -0.00907
  56        4PY        -0.00137  -0.00219   0.00083  -0.01183   0.00086
  57        4PZ         0.00034   0.00000   0.00030   0.00117   0.00183
  58        5S          0.00207   0.00397   0.00002   0.08896   0.00752
  59        5PX        -0.00184   0.00018   0.00128   0.01189  -0.02652
  60        5PY        -0.00117  -0.00042  -0.00017   0.02497   0.00295
  61        5PZ         0.00042   0.00005   0.00039  -0.00421   0.00324
  62        6D 0       -0.00007  -0.00002   0.00004  -0.01556  -0.00065
  63        6D+1       -0.00001   0.00001  -0.00004  -0.00436   0.00199
  64        6D-1       -0.00002   0.00002   0.00002  -0.00215   0.00378
  65        6D+2       -0.00010  -0.00006   0.00001  -0.00271  -0.00245
  66        6D-2        0.00015  -0.00014   0.00001   0.00006  -0.02305
  67 4   N  1S         -0.00002   0.00000   0.00000  -0.06763  -0.07825
  68        2S         -0.00006   0.00001   0.00002  -0.10608  -0.12332
  69        2PX        -0.00020   0.00001  -0.00006   0.03362  -0.00229
  70        2PY        -0.00005  -0.00002  -0.00001   0.00091   0.00103
  71        2PZ         0.00005   0.00000   0.00000  -0.00653  -0.00089
  72        3S          0.00021  -0.00012  -0.00011   0.28939   0.34347
  73        3PX         0.00010  -0.00006   0.00033   0.04807  -0.00602
  74        3PY        -0.00003   0.00011   0.00007   0.00136   0.00250
  75        3PZ        -0.00008   0.00001   0.00001  -0.00935  -0.00098
  76        4S          0.00306   0.00083   0.00038   0.19599   0.24525
  77        4PX        -0.00011   0.00060  -0.00142   0.02273  -0.01905
  78        4PY         0.00073  -0.00093  -0.00007  -0.00093  -0.00556
  79        4PZ        -0.00020  -0.00004   0.00008  -0.00519   0.00251
  80        5S          0.00482   0.00639   0.00033  -0.08435  -0.16923
  81        5PX        -0.01921   0.00364  -0.01189   0.00774  -0.08683
  82        5PY        -0.00155  -0.00047   0.00001   0.00250  -0.02231
  83        5PZ         0.00251  -0.00087   0.00133   0.00091   0.01814
  84        6D 0        0.00006   0.00001   0.00003  -0.00940  -0.00740
  85        6D+1        0.00012   0.00000   0.00003  -0.00332  -0.00190
  86        6D-1        0.00004   0.00000  -0.00002  -0.00080  -0.00107
  87        6D+2       -0.00027   0.00001  -0.00002   0.00311  -0.00078
  88        6D-2       -0.00018   0.00001  -0.00001  -0.00082   0.00081
  89 5   H  1S          0.00006  -0.00002  -0.00002   0.00700   0.01069
  90        2S         -0.00100   0.00022   0.00029   0.00690   0.01205
  91        3S         -0.00104   0.00061  -0.00115  -0.00468  -0.00317
  92        4PX        -0.00005   0.00000   0.00000  -0.00014   0.00015
  93        4PY         0.00027  -0.00002   0.00004  -0.00142  -0.00373
  94        4PZ        -0.00003   0.00000   0.00002   0.00013   0.00022
  95 6   H  1S         -0.00002   0.00003   0.00000   0.00715  -0.01056
  96        2S          0.00019  -0.00067   0.00006   0.00642  -0.01130
  97        3S          0.00101  -0.00146   0.00050  -0.00387   0.00230
  98        4PX         0.00001   0.00006  -0.00003   0.00007   0.00051
  99        4PY        -0.00003   0.00022   0.00001  -0.00140   0.00355
 100        4PZ         0.00001  -0.00003  -0.00001   0.00009  -0.00033
 101 7   H  1S          0.00004   0.00002  -0.00005   0.01371   0.00011
 102        2S         -0.00068  -0.00054   0.00048   0.00817   0.00018
 103        3S         -0.00121  -0.00178  -0.00031  -0.00854   0.00002
 104        4PX         0.00019  -0.00018  -0.00003   0.00011  -0.00394
 105        4PY        -0.00020  -0.00014   0.00005   0.00167   0.00024
 106        4PZ        -0.00002   0.00004  -0.00003  -0.00012   0.00065
 107 8   N  1S          0.00000  -0.00003   0.00000  -0.06897   0.07788
 108        2S          0.00001  -0.00007   0.00000  -0.10820   0.12274
 109        2PX        -0.00003   0.00018  -0.00001  -0.03292  -0.00413
 110        2PY        -0.00002  -0.00006   0.00000   0.00460  -0.00037
 111        2PZ         0.00001  -0.00003  -0.00001   0.00550   0.00054
 112        3S         -0.00001   0.00030   0.00004   0.29543  -0.34225
 113        3PX         0.00015   0.00004   0.00006  -0.04699  -0.00877
 114        3PY         0.00009  -0.00009  -0.00001   0.00662  -0.00136
 115        3PZ        -0.00005   0.00000   0.00002   0.00789   0.00131
 116        4S         -0.00017   0.00246  -0.00087   0.20165  -0.24564
 117        4PX        -0.00091  -0.00172  -0.00027  -0.02187  -0.01964
 118        4PY        -0.00088   0.00135   0.00015   0.00174   0.00936
 119        4PZ         0.00029   0.00019  -0.00009   0.00367   0.00246
 120        5S          0.01229   0.00534   0.00489  -0.08244   0.15752
 121        5PX        -0.01046   0.01037  -0.00594   0.03047  -0.08861
 122        5PY         0.00048  -0.00239  -0.00025  -0.00041   0.03530
 123        5PZ         0.00223  -0.00153   0.00091  -0.00574   0.01259
 124        6D 0        0.00002   0.00007  -0.00001  -0.00951   0.00731
 125        6D+1        0.00001   0.00005   0.00000  -0.00349   0.00198
 126        6D-1        0.00001  -0.00005   0.00000  -0.00095   0.00085
 127        6D+2        0.00000  -0.00024   0.00000   0.00314   0.00099
 128        6D-2       -0.00001   0.00022   0.00000  -0.00028   0.00097
 129 9   C  1S          0.56303   0.00018  -0.00094  -0.01360  -0.03116
 130        2S          0.46323   0.00015  -0.00082  -0.02086  -0.04791
 131        2PX         0.00101   0.00001  -0.00024   0.01428   0.02641
 132        2PY         0.00030   0.00000   0.00006   0.00355   0.00744
 133        2PZ        -0.00033  -0.00001  -0.00040  -0.00232  -0.00479
 134        3S          0.01947  -0.00008   0.00054   0.05308   0.12416
 135        3PX        -0.00104  -0.00005   0.00032   0.02443   0.04261
 136        3PY        -0.00076   0.00001  -0.00021   0.00638   0.01294
 137        3PZ         0.00172   0.00005   0.00094  -0.00552  -0.01070
 138        4S         -0.01756   0.00059  -0.00045   0.01955   0.02701
 139        4PX        -0.00177  -0.00014  -0.00229   0.00244  -0.00094
 140        4PY        -0.00168   0.00058  -0.00049   0.00371  -0.00071
 141        4PZ         0.00180  -0.00029  -0.00108   0.00130  -0.00213
 142        5S         -0.03375  -0.00250   0.01925   0.10150  -0.03935
 143        5PX        -0.00322  -0.00105  -0.00187   0.00072  -0.01353
 144        5PY        -0.00171   0.00003   0.00159   0.00251  -0.00119
 145        5PZ         0.00501   0.00008  -0.00420  -0.02377   0.00184
 146        6D 0        0.00024   0.00002  -0.00031  -0.00342  -0.00574
 147        6D+1       -0.00019   0.00000  -0.00055  -0.00181  -0.00269
 148        6D-1        0.00015   0.00001   0.00010  -0.00051  -0.00121
 149        6D+2       -0.00109  -0.00004  -0.00034   0.00542   0.00877
 150        6D-2       -0.00050   0.00002  -0.00002   0.00289   0.00522
 151 10  C  1S          0.00092   0.00000   0.56295  -0.00252  -0.00811
 152        2S          0.00073   0.00000   0.46316  -0.00386  -0.01246
 153        2PX         0.00022   0.00000   0.00027   0.00222   0.00577
 154        2PY        -0.00009   0.00000  -0.00003   0.00011   0.00013
 155        2PZ         0.00043   0.00001   0.00036   0.00149   0.00471
 156        3S          0.00037   0.00002   0.01961   0.00959   0.03213
 157        3PX        -0.00054   0.00000  -0.00098   0.00436   0.01096
 158        3PY         0.00027  -0.00002   0.00018  -0.00012  -0.00042
 159        3PZ        -0.00108  -0.00001  -0.00136   0.00378   0.01053
 160        4S          0.00405  -0.00035  -0.01183   0.00473   0.00999
 161        4PX         0.00032  -0.00034  -0.00184   0.00268   0.00108
 162        4PY        -0.00007  -0.00023   0.00010  -0.00110   0.00148
 163        4PZ         0.00111  -0.00011  -0.00150   0.00084   0.00049
 164        5S          0.01701  -0.00023  -0.01886  -0.08213  -0.00724
 165        5PX         0.00298   0.00004  -0.00219  -0.01703  -0.00275
 166        5PY        -0.00005  -0.00007   0.00023   0.00155  -0.00019
 167        5PZ         0.00279  -0.00009  -0.00311  -0.01348  -0.00169
 168        6D 0       -0.00060  -0.00001  -0.00042   0.00043   0.00115
 169        6D+1       -0.00070  -0.00001  -0.00065   0.00142   0.00322
 170        6D-1        0.00017  -0.00001   0.00009  -0.00010  -0.00018
 171        6D+2       -0.00014   0.00002  -0.00021   0.00052   0.00110
 172        6D-2        0.00014   0.00001   0.00007  -0.00023  -0.00032
 173 11  H  1S          0.00001   0.00001  -0.00011   0.00529   0.01443
 174        2S         -0.00245  -0.00022  -0.00020   0.00669   0.02014
 175        3S          0.00201   0.00049  -0.00343  -0.00274  -0.01106
 176        4PX        -0.00068   0.00000  -0.00013   0.00115   0.00235
 177        4PY         0.00136   0.00000   0.00014  -0.00109  -0.00260
 178        4PZ         0.00148   0.00005   0.00020  -0.00146  -0.00356
 179 12  H  1S          0.00008   0.00001  -0.00009   0.00556   0.01460
 180        2S         -0.00303  -0.00001  -0.00050   0.00949   0.01993
 181        3S          0.00249   0.00073  -0.00202  -0.00339  -0.00851
 182        4PX         0.00014   0.00000   0.00003   0.00036   0.00091
 183        4PY        -0.00213   0.00000  -0.00026   0.00206   0.00472
 184        4PZ         0.00057   0.00000   0.00009  -0.00081  -0.00150
 185 13  H  1S         -0.00003   0.00001   0.00021   0.00063   0.00273
 186        2S         -0.00105  -0.00007  -0.00338   0.00121   0.00437
 187        3S         -0.00072  -0.00003   0.00339   0.00162  -0.00213
 188        4PX        -0.00035  -0.00001  -0.00196   0.00044   0.00137
 189        4PY        -0.00013   0.00000  -0.00065   0.00021   0.00029
 190        4PZ         0.00012   0.00001   0.00056  -0.00003  -0.00009
 191 14  H  1S         -0.00005  -0.00002   0.00020   0.00117   0.00408
 192        2S         -0.00092   0.00019  -0.00318   0.00177   0.00532
 193        3S         -0.00091   0.00013   0.00340   0.00388  -0.00325
 194        4PX         0.00000   0.00001   0.00008   0.00031   0.00065
 195        4PY         0.00032  -0.00002   0.00201  -0.00047  -0.00130
 196        4PZ        -0.00007   0.00001  -0.00056   0.00028   0.00066
 197 15  H  1S         -0.00008  -0.00001   0.00018   0.00124   0.00403
 198        2S         -0.00071   0.00010  -0.00294   0.00093   0.00556
 199        3S         -0.00062  -0.00017   0.00326   0.00404  -0.00023
 200        4PX         0.00014   0.00000   0.00084   0.00021   0.00005
 201        4PY        -0.00020   0.00001  -0.00121   0.00040   0.00093
 202        4PZ        -0.00016   0.00000  -0.00144   0.00050   0.00133
 203 16  C  1S         -0.00018   0.56300   0.00000  -0.01419   0.03091
 204        2S         -0.00014   0.46316   0.00000  -0.02174   0.04745
 205        2PX        -0.00001  -0.00108   0.00001  -0.01479   0.02686
 206        2PY         0.00000   0.00040   0.00000   0.00541  -0.01062
 207        2PZ         0.00000   0.00015  -0.00001   0.00211  -0.00373
 208        3S         -0.00013   0.01960  -0.00003   0.05548  -0.12239
 209        3PX         0.00006   0.00191  -0.00005  -0.02578   0.04470
 210        3PY         0.00003  -0.00083   0.00002   0.00946  -0.01789
 211        3PZ         0.00000  -0.00026   0.00005   0.00360  -0.00625
 212        4S          0.00142  -0.01046   0.00088   0.01203  -0.02138
 213        4PX        -0.00028   0.00109  -0.00012  -0.00061  -0.00295
 214        4PY         0.00081  -0.00096   0.00021   0.00107   0.00070
 215        4PZ        -0.00027  -0.00017  -0.00011   0.00047   0.00061
 216        5S         -0.00099  -0.01306  -0.00322  -0.02449   0.04057
 217        5PX         0.00028   0.00310   0.00071   0.00592  -0.01258
 218        5PY        -0.00012  -0.00134  -0.00060  -0.00360   0.00175
 219        5PZ        -0.00009  -0.00046  -0.00034  -0.00054   0.00221
 220        6D 0        0.00002   0.00055   0.00001  -0.00397   0.00663
 221        6D+1        0.00000   0.00023   0.00000  -0.00169   0.00272
 222        6D-1       -0.00001  -0.00010   0.00001   0.00056  -0.00090
 223        6D+2       -0.00002  -0.00072   0.00001   0.00474  -0.00738
 224        6D-2       -0.00003   0.00069   0.00000  -0.00423   0.00727
 225 17  H  1S          0.00004   0.00015   0.00001   0.00527  -0.01387
 226        2S         -0.00044  -0.00319  -0.00012   0.00769  -0.01940
 227        3S          0.00123   0.00246   0.00066  -0.00122   0.01251
 228        4PX         0.00001   0.00060   0.00000  -0.00121   0.00230
 229        4PY         0.00000   0.00067   0.00001  -0.00050   0.00098
 230        4PZ        -0.00007  -0.00194  -0.00001   0.00189  -0.00408
 231 18  H  1S          0.00003   0.00015   0.00001   0.00528  -0.01386
 232        2S         -0.00027  -0.00316  -0.00016   0.00759  -0.01927
 233        3S          0.00131   0.00252   0.00119  -0.00196   0.01174
 234        4PX         0.00002   0.00116  -0.00001  -0.00171   0.00343
 235        4PY        -0.00002   0.00084   0.00000  -0.00065   0.00134
 236        4PZ         0.00005   0.00158   0.00002  -0.00136   0.00305
 237 19  H  1S          0.00001   0.00017   0.00000   0.00569  -0.01405
 238        2S         -0.00003  -0.00343  -0.00002   0.00862  -0.02019
 239        3S          0.00123   0.00222   0.00035  -0.00086   0.00957
 240        4PX         0.00001  -0.00023   0.00001  -0.00038   0.00091
 241        4PY         0.00001  -0.00218   0.00000   0.00218  -0.00479
 242        4PZ         0.00002   0.00015   0.00000  -0.00006   0.00009
                          11        12        13        14        15
                           O         O         O         O         O
     Eigenvalues --    -0.97469  -0.94533  -0.89686  -0.82773  -0.80079
   1 1   C  1S         -0.06118   0.03519  -0.02495  -0.04789   0.00990
   2        2S         -0.09475   0.05447  -0.03880  -0.07487   0.01551
   3        2PX         0.04059  -0.00520  -0.03199  -0.02442   0.06723
   4        2PY        -0.01614  -0.00581  -0.02123  -0.00890   0.01675
   5        2PZ        -0.00547   0.00192   0.00825   0.00236  -0.01597
   6        3S          0.25136  -0.14604   0.10552   0.20485  -0.04434
   7        3PX         0.05477  -0.00705  -0.04759  -0.03597   0.09241
   8        3PY        -0.02258  -0.00650  -0.03426  -0.01308   0.02375
   9        3PZ        -0.00729   0.00254   0.01237   0.00362  -0.02223
  10        4S          0.12538  -0.07222   0.05472   0.09106   0.00543
  11        4PX         0.01663  -0.00730  -0.00708  -0.01620   0.03683
  12        4PY        -0.00238   0.00257  -0.00229   0.02018  -0.00871
  13        4PZ        -0.00274   0.00153   0.00237  -0.00116  -0.00831
  14        5S          0.06983   0.02928   0.02992  -0.10611  -0.02007
  15        5PX         0.00552   0.02444   0.01123  -0.03967   0.00072
  16        5PY         0.00427   0.00795   0.00185   0.00296   0.00797
  17        5PZ         0.00091  -0.00238  -0.00065   0.00634   0.00082
  18        6D 0       -0.00994   0.00342  -0.00346  -0.00599   0.00115
  19        6D+1       -0.00323   0.00270  -0.00015  -0.00043   0.00100
  20        6D-1       -0.00013   0.00030  -0.00265  -0.00032   0.00259
  21        6D+2        0.00309  -0.00826  -0.00914  -0.00550   0.00226
  22        6D-2       -0.00599  -0.00372   0.00674  -0.00010  -0.00755
  23 2   C  1S         -0.05858   0.04271   0.02216   0.03779  -0.03684
  24        2S         -0.09073   0.06615   0.03455   0.05904  -0.05765
  25        2PX        -0.04351  -0.00058  -0.00537  -0.06482  -0.00453
  26        2PY        -0.00817   0.00292   0.02568   0.02730   0.03132
  27        2PZ         0.00823  -0.00003  -0.00054   0.00842  -0.00241
  28        3S          0.24103  -0.17699  -0.09363  -0.16285   0.15685
  29        3PX        -0.05904  -0.00173  -0.01032  -0.09186  -0.00672
  30        3PY        -0.01107   0.00713   0.03858   0.04136   0.04611
  31        3PZ         0.01117  -0.00004  -0.00044   0.01151  -0.00369
  32        4S          0.11215  -0.09413  -0.04348  -0.06455   0.08544
  33        4PX        -0.01557   0.00751  -0.00174  -0.03235   0.01111
  34        4PY         0.00040   0.00254  -0.00065  -0.01024   0.02691
  35        4PZ         0.00281  -0.00159   0.00051   0.00636  -0.00435
  36        5S         -0.03003  -0.06334  -0.03219   0.10356   0.01950
  37        5PX         0.03394   0.00851   0.00056  -0.03647   0.00512
  38        5PY        -0.01100  -0.00077  -0.00353   0.00363  -0.00459
  39        5PZ        -0.00607  -0.00276  -0.00057   0.00645  -0.00139
  40        6D 0       -0.00902   0.00521   0.00417   0.00471  -0.00308
  41        6D+1       -0.00420   0.00171  -0.00058  -0.00049  -0.00218
  42        6D-1       -0.00164  -0.00067   0.00162   0.00025   0.00017
  43        6D+2        0.00555  -0.00355   0.01093   0.00954   0.00827
  44        6D-2        0.00504   0.00608  -0.00245   0.00649   0.00141
  45 3   C  1S          0.02754  -0.06803   0.01973  -0.01575  -0.02512
  46        2S          0.04261  -0.10570   0.03077  -0.02466  -0.03935
  47        2PX        -0.00278  -0.00679  -0.03250   0.07264  -0.10549
  48        2PY         0.01942   0.02397  -0.01018  -0.00018  -0.00871
  49        2PZ        -0.00056   0.00016   0.00760  -0.01544   0.01561
  50        3S         -0.11774   0.29191  -0.08583   0.06915   0.10974
  51        3PX        -0.00384  -0.00920  -0.04719   0.09935  -0.14758
  52        3PY         0.02310   0.03333  -0.01318  -0.00110  -0.01278
  53        3PZ        -0.00042   0.00034   0.01099  -0.02155   0.02145
  54        4S         -0.05603   0.12085  -0.03476   0.02865   0.05949
  55        4PX        -0.00237  -0.00419  -0.00846   0.01970  -0.02756
  56        4PY        -0.00459  -0.00623   0.00420  -0.00844  -0.01480
  57        4PZ         0.00085   0.00079   0.00188  -0.00384   0.00366
  58        5S          0.04991   0.03018  -0.02498   0.00469   0.00598
  59        5PX         0.00342   0.00249   0.00903   0.03576  -0.03112
  60        5PY         0.01212  -0.00116  -0.00270  -0.00392  -0.00201
  61        5PZ         0.00079   0.00152   0.00185  -0.00816   0.00248
  62        6D 0        0.00143  -0.00977   0.00275  -0.00205  -0.00294
  63        6D+1        0.00310  -0.00275   0.00113   0.00021   0.00230
  64        6D-1       -0.00089  -0.00063   0.00343  -0.00220   0.00179
  65        6D+2       -0.01588  -0.00145   0.00285  -0.00371  -0.00590
  66        6D-2        0.00041  -0.00302  -0.01464   0.00602  -0.01879
  67 4   N  1S          0.01364  -0.00337  -0.02980   0.01797   0.00356
  68        2S          0.02167  -0.00527  -0.04743   0.02880   0.00576
  69        2PX         0.04865   0.07857   0.01276   0.03854   0.08783
  70        2PY         0.06269  -0.05329   0.04066   0.08880  -0.09386
  71        2PZ        -0.01059  -0.00650  -0.00016  -0.02273  -0.01980
  72        3S         -0.06263   0.01518   0.13824  -0.08506  -0.01731
  73        3PX         0.07289   0.11607   0.01911   0.05773   0.12861
  74        3PY         0.09365  -0.07892   0.06139   0.13063  -0.13622
  75        3PZ        -0.01591  -0.00956  -0.00017  -0.03408  -0.02983
  76        4S         -0.04777   0.01006   0.11162  -0.06975  -0.02945
  77        4PX         0.04923   0.06793   0.00603   0.05054   0.08133
  78        4PY         0.05199  -0.04112   0.03453   0.09480  -0.09910
  79        4PZ        -0.01034  -0.00584   0.00118  -0.02653  -0.01956
  80        5S         -0.01334  -0.00967   0.00066   0.05396   0.03891
  81        5PX        -0.04746  -0.02594  -0.01294   0.00929  -0.00614
  82        5PY        -0.01432   0.01491  -0.00708  -0.00917   0.00922
  83        5PZ         0.00716   0.00124  -0.00122   0.00264   0.00354
  84        6D 0        0.00003  -0.00028  -0.00062   0.00034  -0.00025
  85        6D+1       -0.00012  -0.00034   0.00002   0.00201   0.00185
  86        6D-1       -0.00159   0.00202  -0.00105  -0.00069   0.00192
  87        6D+2       -0.00511   0.00109  -0.00710  -0.00403  -0.00033
  88        6D-2        0.00569  -0.01123   0.00114   0.00293  -0.00810
  89 5   H  1S          0.02687  -0.02771   0.02097   0.04797  -0.02610
  90        2S          0.02940  -0.03547   0.02545   0.05714  -0.03249
  91        3S         -0.00652  -0.00416  -0.00258  -0.00350   0.00103
  92        4PX         0.00341  -0.00433   0.00146   0.00329  -0.00103
  93        4PY        -0.00251   0.00459  -0.00469  -0.00717   0.00562
  94        4PZ        -0.00036   0.00054   0.00022  -0.00040  -0.00055
  95 6   H  1S          0.02558  -0.03161  -0.00956  -0.04813   0.04733
  96        2S          0.02874  -0.03913  -0.01049  -0.05903   0.05613
  97        3S         -0.00497  -0.00083   0.00627   0.00118  -0.00282
  98        4PX        -0.00355   0.00493  -0.00023   0.00375  -0.00594
  99        4PY        -0.00199   0.00482   0.00200   0.00868  -0.00440
 100        4PZ         0.00075  -0.00113  -0.00008  -0.00130   0.00122
 101 7   H  1S         -0.03020   0.04168  -0.01022   0.01264   0.03403
 102        2S         -0.04143   0.04619  -0.01024   0.01380   0.04196
 103        3S         -0.00804  -0.00372   0.00257  -0.00076   0.00209
 104        4PX        -0.00050   0.00002  -0.00169   0.00326  -0.00500
 105        4PY        -0.00914   0.00698  -0.00071   0.00086   0.00479
 106        4PZ         0.00079  -0.00043   0.00043  -0.00092   0.00022
 107 8   N  1S          0.01898   0.00793   0.01356   0.00626   0.03539
 108        2S          0.03013   0.01266   0.02151   0.00999   0.05665
 109        2PX        -0.03784  -0.06756   0.08875  -0.03530   0.02886
 110        2PY         0.06603  -0.05347  -0.03199  -0.10633   0.04367
 111        2PZ         0.00181   0.01557  -0.01243   0.01246  -0.00966
 112        3S         -0.08701  -0.03653  -0.06252  -0.02971  -0.16777
 113        3PX        -0.05666  -0.09977   0.13113  -0.05099   0.04180
 114        3PY         0.09839  -0.07975  -0.04827  -0.15638   0.06350
 115        3PZ         0.00270   0.02299  -0.01830   0.01812  -0.01414
 116        4S         -0.06802  -0.03188  -0.04497  -0.03265  -0.14213
 117        4PX        -0.04271  -0.06120   0.08211  -0.03034   0.01690
 118        4PY         0.05757  -0.04054  -0.03347  -0.10994   0.04989
 119        4PZ         0.00339   0.01385  -0.01110   0.01149  -0.00820
 120        5S          0.02116   0.02834  -0.00032  -0.02826  -0.00249
 121        5PX        -0.00262  -0.02219  -0.01122   0.01816   0.01024
 122        5PY        -0.01172   0.01875   0.00083   0.00874  -0.01272
 123        5PZ         0.00119   0.00287   0.00182  -0.00416  -0.00031
 124        6D 0        0.00001   0.00069   0.00038  -0.00021   0.00009
 125        6D+1        0.00125  -0.00156  -0.00042  -0.00136   0.00060
 126        6D-1        0.00054  -0.00125   0.00132  -0.00038   0.00101
 127        6D+2       -0.00538   0.00532   0.00535   0.00659   0.00062
 128        6D-2       -0.00497   0.00958  -0.00545   0.00448  -0.00507
 129 9   C  1S          0.04940   0.05356   0.03983   0.01857   0.02490
 130        2S          0.07644   0.08305   0.06194   0.02899   0.03895
 131        2PX        -0.01434   0.00258   0.02832  -0.05246  -0.02846
 132        2PY         0.00064  -0.01127   0.00880   0.01205  -0.02688
 133        2PZ         0.00716   0.01035   0.01396  -0.02985  -0.03182
 134        3S         -0.20259  -0.22132  -0.16665  -0.08146  -0.10840
 135        3PX        -0.02453   0.00123   0.04129  -0.08174  -0.04636
 136        3PY        -0.00062  -0.01953   0.01173   0.01716  -0.04171
 137        3PZ         0.01578   0.02062   0.02553  -0.04370  -0.04654
 138        4S         -0.09732  -0.12172  -0.10997  -0.01611  -0.06252
 139        4PX        -0.00109   0.00562   0.01084  -0.02134  -0.01254
 140        4PY         0.00038  -0.00669   0.00351   0.01273  -0.01718
 141        4PZ         0.00612   0.00786   0.00916  -0.02176  -0.02475
 142        5S         -0.03369  -0.00198   0.03520  -0.07125  -0.14563
 143        5PX        -0.01757  -0.00370  -0.00089   0.01007  -0.00375
 144        5PY        -0.00563   0.00120   0.00231  -0.00986  -0.00478
 145        5PZ        -0.00277  -0.00390  -0.01005   0.01814   0.02711
 146        6D 0        0.00263  -0.00117  -0.00534   0.00982   0.00530
 147        6D+1       -0.00001  -0.00190  -0.00543   0.00709   0.00581
 148        6D-1        0.00115   0.00082   0.00080  -0.00066  -0.00204
 149        6D+2       -0.00658  -0.00165   0.00159  -0.00648   0.00061
 150        6D-2       -0.00063  -0.00419   0.00434  -0.00074  -0.00868
 151 10  C  1S          0.02611   0.03957   0.05178  -0.05658  -0.04590
 152        2S          0.04025   0.06104   0.08003  -0.08774  -0.07128
 153        2PX        -0.00972  -0.01123  -0.00601  -0.00826  -0.01175
 154        2PY         0.00190   0.00022   0.00338   0.00359  -0.00486
 155        2PZ        -0.01195  -0.01555  -0.01336  -0.00662  -0.01515
 156        3S         -0.10421  -0.15874  -0.20855   0.23154   0.18828
 157        3PX        -0.01754  -0.01939  -0.01157  -0.01174  -0.01615
 158        3PY         0.00342   0.00112   0.00539   0.00483  -0.00725
 159        3PZ        -0.02195  -0.02781  -0.02389  -0.00814  -0.02107
 160        4S         -0.05299  -0.07965  -0.12213   0.14010   0.12735
 161        4PX        -0.00274  -0.00345  -0.00412  -0.00312  -0.00458
 162        4PY         0.00026   0.00053   0.00075   0.00193   0.00003
 163        4PZ        -0.00578  -0.00523  -0.00531  -0.00687  -0.00932
 164        5S         -0.01417  -0.00980  -0.03455   0.07985   0.10485
 165        5PX         0.00106   0.00053  -0.00316   0.01231   0.01782
 166        5PY         0.00134   0.00175   0.00035  -0.00080  -0.00157
 167        5PZ        -0.00272  -0.00021  -0.00420   0.01417   0.01810
 168        6D 0       -0.00244  -0.00331  -0.00290  -0.00044  -0.00221
 169        6D+1       -0.00470  -0.00495  -0.00305  -0.00277  -0.00376
 170        6D-1        0.00086   0.00063   0.00122   0.00039  -0.00070
 171        6D+2       -0.00162  -0.00161  -0.00081  -0.00108  -0.00106
 172        6D-2        0.00072   0.00022   0.00064   0.00100  -0.00063
 173 11  H  1S         -0.02820  -0.03821  -0.02697  -0.01227  -0.03891
 174        2S         -0.03577  -0.04211  -0.03149  -0.02159  -0.04534
 175        3S          0.00069   0.00103   0.00013   0.00157   0.00340
 176        4PX        -0.00307  -0.00225  -0.00088  -0.00362  -0.00323
 177        4PY         0.00434   0.00421   0.00354   0.00277   0.00261
 178        4PZ         0.00558   0.00637   0.00491   0.00133   0.00365
 179 12  H  1S         -0.03363  -0.03034  -0.03272  -0.02762  -0.01029
 180        2S         -0.04039  -0.03808  -0.03646  -0.03532  -0.01806
 181        3S         -0.00384   0.00562  -0.00085  -0.00276   0.00800
 182        4PX        -0.00046   0.00011   0.00129  -0.00218  -0.00121
 183        4PY        -0.00725  -0.00757  -0.00554  -0.00480  -0.00412
 184        4PZ         0.00271   0.00271   0.00275   0.00038  -0.00071
 185 13  H  1S         -0.01440  -0.02365  -0.03668   0.04793   0.04305
[...]
 229. BD*(   2) C   3 - N   4        /234. BD*(   1) C   9 - C  10            0.74    0.46    0.032


 Natural Bond Orbitals (Summary):

                                                            Principal Delocalizations
           NBO                        Occupancy    Energy   (geminal,vicinal,remote)
 ====================================================================================
 Molecular unit  1  (C6H11N2)
     1. BD (   1) C   1 - C   2          1.97825    -0.91121  233(v),232(v),226(g),225(g)
                                                    114(v),83(v),224(g),227(g)
     2. BD (   2) C   1 - C   2          1.82906    -0.45805  30(v),229(v)
     3. BD (   1) C   1 - N   4          1.98110    -0.98596  230(v),226(v),228(g),231(v)
                                                    232(g),131(v),50(v),68(v)
                                                    227(v),222(g),65(v)
     4. BD (   1) C   1 - H   5          1.98385    -0.73254  228(v),222(g),227(v),48(v)
                                                    83(v),51(v)
     5. BD (   1) C   2 - H   6          1.98415    -0.73259  231(v),222(g),224(v),31(v)
                                                    114(v)
     6. BD (   1) C   2 - N   8          1.98184    -0.98783  230(v),225(v),231(g),228(v)
                                                    68(v),233(g),224(v),33(v)
                                                    190(v),222(g),65(v)
     7. BD (   1) C   3 - N   4          1.98434    -1.03835  233(v),225(v),224(g),31(v)
                                                    232(g),116(v),131(v),230(g)
                                                    231(g)
     8. BD (   2) C   3 - N   4          1.90110    -0.54528  30(v),223(v),234(v),32(v)
                                                    235(v),132(v)
     9. BD (   1) C   3 - H   7          1.98435    -0.76537  224(v),227(v),114(v),83(v)
                                                    228(g),231(g)
    10. BD (   1) C   3 - N   8          1.98511    -1.03927  232(v),226(v),227(g),48(v)
                                                    233(g),84(v),190(v),230(g)
                                                    228(g)
    11. BD (   1) N   4 - C   9          1.98719    -0.92819  228(g),224(g),65(v),231(v)
                                                    31(v),237(v),222(v)
    12. BD (   1) N   8 - C  16          1.99009    -0.94179  231(g),48(v),227(g),228(v)
                                                    65(v),222(v)
    13. BD (   1) C   9 - C  10          1.98339    -0.78227  229(v),82(v),228(v)
    14. BD (   1) C   9 - H  11          1.97800    -0.67565  228(v),239(v),229(v),148(v)
    15. BD (   1) C   9 - H  12          1.98039    -0.68000  224(v),238(v),149(v)
    16. BD (   1) C  10 - H  13          1.97918    -0.64031  232(v)
    17. BD (   1) C  10 - H  14          1.98673    -0.64651  236(v)
    18. BD (   1) C  10 - H  15          1.98738    -0.64538  235(v)
    19. BD (   1) C  16 - H  17          1.98534    -0.69112  30(v),231(v),115(v)
    20. BD (   1) C  16 - H  18          1.98513    -0.69093  30(v),231(v),115(v)
    21. BD (   1) C  16 - H  19          1.98935    -0.69637  227(v)
    22. CR (   1) C   1                  1.99918   -10.25526  232(v),48(v),228(v),226(v)
                                                    222(g),99(v),50(v)
    23. CR (   1) C   2                  1.99919   -10.25566  233(v),31(v),231(v),225(v)
                                                    222(g),104(v)
    24. CR (   1) C   3                  1.99922   -10.30644  233(v),232(v),224(v),227(v)
                                                    109(v)
    25. CR (   1) N   4                  1.99929   -14.39785  33(v),68(v),133(v)
    26. CR (   1) N   8                  1.99929   -14.40461  50(v),68(v),192(v)
    27. CR (   1) C   9                  1.99929   -10.24971  151(v),224(v),228(v)
    28. CR (   1) C  10                  1.99935   -10.17280  134(v)
    29. CR (   1) C  16                  1.99933   -10.24683  227(v),231(v),233(g)
    30. LP (   1) N   8                  1.49217    -0.45520  229(v),223(v),241(v),240(v)
                                                    67(v),49(v),191(v)
    31. RY*(   1) C   1                  0.00412     1.36696   
    32. RY*(   2) C   1                  0.00184     0.75528   
    33. RY*(   3) C   1                  0.00177     0.87888   
    34. RY*(   4) C   1                  0.00069     0.94279   
    35. RY*(   5) C   1                  0.00048     1.07968   
    36. RY*(   6) C   1                  0.00036     0.44100   
    37. RY*(   7) C   1                  0.00021     1.60924   
    38. RY*(   8) C   1                  0.00014     1.23140   
    39. RY*(   9) C   1                  0.00011     1.26714   
    40. RY*(  10) C   1                  0.00006     1.42804   
    41. RY*(  11) C   1                  0.00005     1.97594   
    42. RY*(  12) C   1                  0.00002     1.74537   
    43. RY*(  13) C   1                  0.00002     2.90859   
    44. RY*(  14) C   1                  0.00000    20.18327   
    45. RY*(  15) C   1                  0.00000     2.68258   
    46. RY*(  16) C   1                  0.00001     1.57710   
    47. RY*(  17) C   1                  0.00000     2.27945   
    48. RY*(   1) C   2                  0.00419     1.32958   
    49. RY*(   2) C   2                  0.00192     0.74211   
    50. RY*(   3) C   2                  0.00149     0.93450   
    51. RY*(   4) C   2                  0.00065     0.84876   
    52. RY*(   5) C   2                  0.00045     1.21055   
    53. RY*(   6) C   2                  0.00022     0.86313   
    54. RY*(   7) C   2                  0.00022     1.43185   
    55. RY*(   8) C   2                  0.00012     2.22668   
    56. RY*(   9) C   2                  0.00010     0.30273   
    57. RY*(  10) C   2                  0.00005     1.81065   
    58. RY*(  11) C   2                  0.00004     1.65048   
    59. RY*(  12) C   2                  0.00000     2.54709   
    60. RY*(  13) C   2                  0.00000     1.85189   
    61. RY*(  14) C   2                  0.00001     2.25397   
    62. RY*(  15) C   2                  0.00001     1.23012   
    63. RY*(  16) C   2                  0.00001     1.89728   
    64. RY*(  17) C   2                  0.00000    21.05539   
    65. RY*(   1) C   3                  0.00484     1.11544   
    66. RY*(   2) C   3                  0.00370     0.72329   
    67. RY*(   3) C   3                  0.00241     1.10825   
    68. RY*(   4) C   3                  0.00205     0.96899   
    69. RY*(   5) C   3                  0.00116     0.47645   
    70. RY*(   6) C   3                  0.00050     0.51944   
    71. RY*(   7) C   3                  0.00027     2.13479   
    72. RY*(   8) C   3                  0.00016     2.58817   
    73. RY*(   9) C   3                  0.00013     1.39546   
    74. RY*(  10) C   3                  0.00012     1.02305   
    75. RY*(  11) C   3                  0.00008     1.13146   
    76. RY*(  12) C   3                  0.00008     2.41056   
    77. RY*(  13) C   3                  0.00005     1.72436   
    78. RY*(  14) C   3                  0.00003     2.45398   
    79. RY*(  15) C   3                  0.00000    19.36322   
    80. RY*(  16) C   3                  0.00000     2.52618   
    81. RY*(  17) C   3                  0.00000     1.92165   
    82. RY*(   1) N   4                  0.00404     0.83592   
    83. RY*(   2) N   4                  0.00286     1.33401   
    84. RY*(   3) N   4                  0.00136     1.19007   
    85. RY*(   4) N   4                  0.00083     1.60251   
    86. RY*(   5) N   4                  0.00074     1.31896   
    87. RY*(   6) N   4                  0.00041     1.59505   
    88. RY*(   7) N   4                  0.00036     1.56099   
    89. RY*(   8) N   4                  0.00015     1.09997   
    90. RY*(   9) N   4                  0.00008     1.64342   
    91. RY*(  10) N   4                  0.00008     2.60963   
    92. RY*(  11) N   4                  0.00004     3.21941   
    93. RY*(  12) N   4                  0.00003     1.85145   
    94. RY*(  13) N   4                  0.00001     2.99810   
    95. RY*(  14) N   4                  0.00001     3.45765   
    96. RY*(  15) N   4                  0.00001     0.81415   
    97. RY*(  16) N   4                  0.00000    34.51284   
    98. RY*(  17) N   4                  0.00000     3.51089   
    99. RY*(   1) H   5                  0.00048     0.98031   
   100. RY*(   2) H   5                  0.00020     1.79583   
   101. RY*(   3) H   5                  0.00019     1.42879   
   102. RY*(   4) H   5                  0.00004     2.27929   
   103. RY*(   5) H   5                  0.00003     1.64286   
   104. RY*(   1) H   6                  0.00035     1.05507   
   105. RY*(   2) H   6                  0.00021     1.75874   
   106. RY*(   3) H   6                  0.00019     1.43924   
   107. RY*(   4) H   6                  0.00003     2.21844   
   108. RY*(   5) H   6                  0.00003     1.64205   
   109. RY*(   1) H   7                  0.00055     0.97902   
   110. RY*(   2) H   7                  0.00021     1.41076   
   111. RY*(   3) H   7                  0.00007     1.78162   
   112. RY*(   4) H   7                  0.00007     2.14372   
   113. RY*(   5) H   7                  0.00003     1.79346   
   114. RY*(   1) N   8                  0.00278     1.55045   
   115. RY*(   2) N   8                  0.00180     0.68152   
   116. RY*(   3) N   8                  0.00136     1.19435   
   117. RY*(   4) N   8                  0.00070     1.87665   
   118. RY*(   5) N   8                  0.00055     1.13642   
   119. RY*(   6) N   8                  0.00042     1.61503   
   120. RY*(   7) N   8                  0.00034     1.87983   
   121. RY*(   8) N   8                  0.00012     1.01702   
   122. RY*(   9) N   8                  0.00008     2.30218   
   123. RY*(  10) N   8                  0.00004     2.51398   
   124. RY*(  11) N   8                  0.00003     1.41486   
   125. RY*(  12) N   8                  0.00003     3.04439   
   126. RY*(  13) N   8                  0.00001     3.12660   
   127. RY*(  14) N   8                  0.00000    34.64285   
   128. RY*(  15) N   8                  0.00000     2.88505   
   129. RY*(  16) N   8                  0.00000     0.58220   
   130. RY*(  17) N   8                  0.00000     3.43617   
   131. RY*(   1) C   9                  0.00410     0.63753   
   132. RY*(   2) C   9                  0.00169     0.87441   
   133. RY*(   3) C   9                  0.00108     0.77451   
   134. RY*(   4) C   9                  0.00073     1.21023   
   135. RY*(   5) C   9                  0.00047     1.33975   
   136. RY*(   6) C   9                  0.00037     1.21310   
   137. RY*(   7) C   9                  0.00025     1.50097   
   138. RY*(   8) C   9                  0.00015     1.77562   
   139. RY*(   9) C   9                  0.00007     1.40058   
   140. RY*(  10) C   9                  0.00003     0.86179   
   141. RY*(  11) C   9                  0.00002     1.33028   
   142. RY*(  12) C   9                  0.00002     1.53976   
   143. RY*(  13) C   9                  0.00000     1.67933   
   144. RY*(  14) C   9                  0.00000     1.51484   
   145. RY*(  15) C   9                  0.00000    22.17433   
   146. RY*(  16) C   9                  0.00000     1.76629   
   147. RY*(  17) C   9                  0.00000     2.85467   
   148. RY*(   1) C  10                  0.00130     0.57749   
   149. RY*(   2) C  10                  0.00100     0.63623   
   150. RY*(   3) C  10                  0.00053     1.17068   
   151. RY*(   4) C  10                  0.00023     0.56443   
   152. RY*(   5) C  10                  0.00009     0.84604   
   153. RY*(   6) C  10                  0.00005     0.44021   
   154. RY*(   7) C  10                  0.00001     0.86428   
   155. RY*(   8) C  10                  0.00001     0.14187   
   156. RY*(   9) C  10                  0.00000     2.88658   
   157. RY*(  10) C  10                  0.00001     2.74484   
   158. RY*(  11) C  10                  0.00001     1.58679   
   159. RY*(  12) C  10                  0.00001     1.73576   
   160. RY*(  13) C  10                  0.00001     1.72402   
   161. RY*(  14) C  10                  0.00001     1.70617   
   162. RY*(  15) C  10                  0.00001     1.82273   
   163. RY*(  16) C  10                  0.00001     1.99964   
   164. RY*(  17) C  10                  0.00000    23.07893   
   165. RY*(   1) H  11                  0.00089     0.62680   
   166. RY*(   2) H  11                  0.00014     1.83645   
   167. RY*(   3) H  11                  0.00009     1.81557   
   168. RY*(   4) H  11                  0.00006     2.15932   
   169. RY*(   5) H  11                  0.00003     1.90026   
   170. RY*(   1) H  12                  0.00083     0.62919   
   171. RY*(   2) H  12                  0.00013     1.83418   
   172. RY*(   3) H  12                  0.00009     1.81754   
   173. RY*(   4) H  12                  0.00004     2.48897   
   174. RY*(   5) H  12                  0.00004     1.49166   
   175. RY*(   1) H  13                  0.00047     0.80811   
   176. RY*(   2) H  13                  0.00012     1.49663   
   177. RY*(   3) H  13                  0.00008     1.69511   
   178. RY*(   4) H  13                  0.00006     1.86883   
   179. RY*(   5) H  13                  0.00002     2.40414   
   180. RY*(   1) H  14                  0.00072     0.59642   
   181. RY*(   2) H  14                  0.00016     1.64429   
   182. RY*(   3) H  14                  0.00010     1.71173   
   183. RY*(   4) H  14                  0.00007     1.78195   
   184. RY*(   5) H  14                  0.00002     2.53493   
   185. RY*(   1) H  15                  0.00091     0.61750   
   186. RY*(   2) H  15                  0.00015     1.63558   
   187. RY*(   3) H  15                  0.00009     1.67674   
   188. RY*(   4) H  15                  0.00006     1.78136   
   189. RY*(   5) H  15                  0.00003     2.55601   
   190. RY*(   1) C  16                  0.00266     0.59081   
   191. RY*(   2) C  16                  0.00144     0.67881   
   192. RY*(   3) C  16                  0.00059     0.97666   
   193. RY*(   4) C  16                  0.00017     0.60391   
   194. RY*(   5) C  16                  0.00014     1.02665   
   195. RY*(   6) C  16                  0.00007     2.35412   
   196. RY*(   7) C  16                  0.00007     0.80597   
   197. RY*(   8) C  16                  0.00006     0.43496   
   198. RY*(   9) C  16                  0.00000     2.70091   
   199. RY*(  10) C  16                  0.00001     0.72650   
   200. RY*(  11) C  16                  0.00000     1.58161   
   201. RY*(  12) C  16                  0.00000     2.91492   
   202. RY*(  13) C  16                  0.00000    22.85046   
   203. RY*(  14) C  16                  0.00001     0.61063   
   204. RY*(  15) C  16                  0.00000     1.47403   
   205. RY*(  16) C  16                  0.00000     1.70452   
   206. RY*(  17) C  16                  0.00000     1.68778   
   207. RY*(   1) H  17                  0.00033     0.63800   
   208. RY*(   2) H  17                  0.00014     1.81382   
   209. RY*(   3) H  17                  0.00011     1.62265   
   210. RY*(   4) H  17                  0.00004     1.80555   
   211. RY*(   5) H  17                  0.00005     2.24748   
   212. RY*(   1) H  18                  0.00032     0.64053   
   213. RY*(   2) H  18                  0.00015     1.80312   
   214. RY*(   3) H  18                  0.00011     1.63049   
   215. RY*(   4) H  18                  0.00005     1.82961   
   216. RY*(   5) H  18                  0.00003     2.22993   
   217. RY*(   1) H  19                  0.00029     0.75081   
   218. RY*(   2) H  19                  0.00013     1.87339   
   219. RY*(   3) H  19                  0.00010     1.57365   
   220. RY*(   4) H  19                  0.00004     1.47936   
   221. RY*(   5) H  19                  0.00002     2.38073   
   222. BD*(   1) C   1 - C   2          0.00847     0.40856   
   223. BD*(   2) C   1 - C   2          0.23749    -0.16102  229(v),30(v),52(g),35(g)
   224. BD*(   1) C   1 - N   4          0.02207     0.25004   
   225. BD*(   1) C   1 - H   5          0.00882     0.25045   
   226. BD*(   1) C   2 - H   6          0.00868     0.24798   
   227. BD*(   1) C   2 - N   8          0.02094     0.24958   
   228. BD*(   1) C   3 - N   4          0.01957     0.29580   
   229. BD*(   2) C   3 - N   4          0.53573    -0.23500  30(v),223(v),66(g),234(v)
                                                    32(v)
   230. BD*(   1) C   3 - H   7          0.01091     0.20720   
   231. BD*(   1) C   3 - N   8          0.01925     0.29313   
   232. BD*(   1) N   4 - C   9          0.03213     0.13252   
   233. BD*(   1) N   8 - C  16          0.01430     0.13482   
   234. BD*(   1) C   9 - C  10          0.00766     0.22655   
   235. BD*(   1) C   9 - H  11          0.01480     0.23436   
   236. BD*(   1) C   9 - H  12          0.01196     0.22988   
   237. BD*(   1) C  10 - H  13          0.00373     0.26463   
   238. BD*(   1) C  10 - H  14          0.00645     0.25757   
   239. BD*(   1) C  10 - H  15          0.00654     0.25775   
   240. BD*(   1) C  16 - H  17          0.00729     0.22609   
   241. BD*(   1) C  16 - H  18          0.00756     0.22616   
   242. BD*(   1) C  16 - H  19          0.00236     0.22236   
       -------------------------------
              Total Lewis   58.91160  ( 98.1860%)
        Valence non-Lewis    1.00670  (  1.6778%)
        Rydberg non-Lewis    0.08170  (  0.1362%)
       -------------------------------
            Total unit  1   60.00000  (100.0000%)
           Charge unit  1    1.00000
 1\1\GINC-CX1-29-13-2\SP\RB3LYP\6-311+G(d,p)\C6H11N2(1+)\CJS14\30-Apr-2
 015\0\\# pop(nbo,full) GFInput b3lyp/6-311+g(d,p) geom=checkpoint inte
 gral=grid=ultrafine scf=conver=9 empiricaldispersion=gd3bj\\1-ethyl-3-
 methylimidazolium created on; Thu Apr 16 12:12:40 BST 2015, from; CJS1
 _emim_-_init.com created on; Thu Apr 30 01:34:54 BST 2015, from; CJS1_
 emim_-_6-311+g-d-p-_gd3bj_opt_.com\\1,1\C,0,-2.1669264574,-0.688255007
 4,0.0318280267\C,0,-0.8061331532,-0.7248027898,0.0407641528\C,0,-1.432
 2980388,1.3923496654,-0.0197155764\N,0,-2.5382336685,0.6425043723,-0.0
 089823311\H,0,-2.8910157164,-1.4844092628,0.0457785941\H,0,-0.12358178
 39,-1.5570101731,0.0616729751\H,0,-1.4040113704,2.4685740701,-0.050177
 9687\N,0,-0.3656109903,0.5854561075,0.0088762219\C,0,-3.9291886848,1.1
 514791823,0.0112461013\C,0,-4.5735933118,0.9904922358,1.3823220911\H,0
 ,-4.4759223012,0.6085205421,-0.7606887855\H,0,-3.8833164457,2.19803886
 6,-0.2904783991\H,0,-5.5911733355,1.3832840013,1.3476114099\H,0,-4.629
 346332,-0.058716101,1.6785002441\H,0,-4.020288727,1.5406398087,2.14583
 6505\C,0,1.039734781,1.0146435934,-0.0025623575\H,0,1.5388912437,0.639
 1892927,0.8897138496\H,0,1.5289157002,0.62975065,-0.8964983505\H,0,1.0
 764416321,2.1018309963,-0.0081114927\\Version=ES64L-G09RevD.01\State=1
 -A\HF=-344.664665\RMSD=2.014e-10\Dipole=0.5784324,0.2196704,-0.2022681
 \Quadrupole=10.1753122,-0.9851052,-9.190207,-0.3018489,-1.3622055,-0.0
 679089\PG=C01 [X(C6H11N2)]\\@


 Happiness is a conscious choice, not an automatic response.
 -- Mildred Barthel
 Job cpu time:       0 days  0 hours  6 minutes 56.5 seconds.
 File lengths (MBytes):  RWF=     24 Int=      0 D2E=      0 Chk=      5 Scr=      1
 Normal termination of Gaussian 09 at Thu Apr 30 01:36:54 2015.
