 Entering Gaussian System, Link 0=g09
 Input=/work/cjs14/CJS1_emim-cl_B_6-311+g-d-p-_gd3bj_freq_unfrz.com
 Output=/work/cjs14/CJS1_emim-cl_B_6-311+g-d-p-_gd3bj_freq_unfrz.log
 Initial command:
 /apps/gaussian/g09_d01/g09/l1.exe /tmp/pbs.9407321.cx1b/Gau-9629.inp -scrdir=/tmp/pbs.9407321.cx1b/
 Entering Link 1 = /apps/gaussian/g09_d01/g09/l1.exe PID=      9630.
  
 Copyright (c) 1988,1990,1992,1993,1995,1998,2003,2009,2013,
            Gaussian, Inc.  All Rights Reserved.
  
 This is part of the Gaussian(R) 09 program.  It is based on
 the Gaussian(R) 03 system (copyright 2003, Gaussian, Inc.),
 the Gaussian(R) 98 system (copyright 1998, Gaussian, Inc.),
 the Gaussian(R) 94 system (copyright 1995, Gaussian, Inc.),
 the Gaussian 92(TM) system (copyright 1992, Gaussian, Inc.),
 the Gaussian 90(TM) system (copyright 1990, Gaussian, Inc.),
 the Gaussian 88(TM) system (copyright 1988, Gaussian, Inc.),
 the Gaussian 86(TM) system (copyright 1986, Carnegie Mellon
 University), and the Gaussian 82(TM) system (copyright 1983,
 Carnegie Mellon University). Gaussian is a federally registered
 trademark of Gaussian, Inc.
  
 This software contains proprietary and confidential information,
 including trade secrets, belonging to Gaussian, Inc.
  
 This software is provided under written license and may be
 used, copied, transmitted, or stored only in accord with that
 written license.
  
 The following legend is applicable only to US Government
 contracts under FAR:
  
                    RESTRICTED RIGHTS LEGEND
  
 Use, reproduction and disclosure by the US Government is
 subject to restrictions as set forth in subparagraphs (a)
 and (c) of the Commercial Computer Software - Restricted
 Rights clause in FAR 52.227-19.
  
 Gaussian, Inc.
 340 Quinnipiac St., Bldg. 40, Wallingford CT 06492
  
  
 ---------------------------------------------------------------
 Warning -- This program may not be used in any manner that
 competes with the business of Gaussian, Inc. or will provide
 assistance to any competitor of Gaussian, Inc.  The licensee
 of this program is prohibited from giving any competitor of
 Gaussian, Inc. access to this program.  By using this program,
 the user acknowledges that Gaussian, Inc. is engaged in the
 business of creating and licensing software in the field of
 computational chemistry and represents and warrants to the
 licensee that it is not a competitor of Gaussian, Inc. and that
 it will not use this program in any manner prohibited above.
 ---------------------------------------------------------------
  

 Cite this work as:
 Gaussian 09, Revision D.01,
 M. J. Frisch, G. W. Trucks, H. B. Schlegel, G. E. Scuseria, 
 M. A. Robb, J. R. Cheeseman, G. Scalmani, V. Barone, B. Mennucci, 
 G. A. Petersson, H. Nakatsuji, M. Caricato, X. Li, H. P. Hratchian, 
 A. F. Izmaylov, J. Bloino, G. Zheng, J. L. Sonnenberg, M. Hada, 
 M. Ehara, K. Toyota, R. Fukuda, J. Hasegawa, M. Ishida, T. Nakajima, 
 Y. Honda, O. Kitao, H. Nakai, T. Vreven, J. A. Montgomery, Jr., 
 J. E. Peralta, F. Ogliaro, M. Bearpark, J. J. Heyd, E. Brothers, 
 K. N. Kudin, V. N. Staroverov, T. Keith, R. Kobayashi, J. Normand, 
 K. Raghavachari, A. Rendell, J. C. Burant, S. S. Iyengar, J. Tomasi, 
 M. Cossi, N. Rega, J. M. Millam, M. Klene, J. E. Knox, J. B. Cross, 
 V. Bakken, C. Adamo, J. Jaramillo, R. Gomperts, R. E. Stratmann, 
 O. Yazyev, A. J. Austin, R. Cammi, C. Pomelli, J. W. Ochterski, 
 R. L. Martin, K. Morokuma, V. G. Zakrzewski, G. A. Voth, 
 P. Salvador, J. J. Dannenberg, S. Dapprich, A. D. Daniels, 
 O. Farkas, J. B. Foresman, J. V. Ortiz, J. Cioslowski, 
 and D. J. Fox, Gaussian, Inc., Wallingford CT, 2013.
 
 ******************************************
 Gaussian 09:  ES64L-G09RevD.01 24-Apr-2013
                19-Apr-2015 
 ******************************************
 %nprocshared=8
 Will use up to    8 processors via shared memory.
 %mem=15000MB
 %chk=CJS1_emim-cl_B_6-311+g-d-p-_gd3bj_freq_unfrz.chk
 ----------------------------------------------------------------------
 # freq b3lyp/6-311+g(d,p) geom=checkpoint integral=grid=ultrafine scf=
 conver=9 empiricaldispersion=gd3bj
 ----------------------------------------------------------------------
 1/10=4,29=2,30=1,38=1/1,3;
 2/12=2,40=1/2;
 3/5=4,6=6,7=111,11=2,14=-4,16=1,25=1,30=1,71=2,74=-5,75=-5,124=41,140=1/1,2,3;
 4//1;
 5/5=2,6=9,38=5,98=1/2;
 8/6=4,10=90,11=11/1;
 11/6=1,8=1,9=11,15=111,16=1/1,2,10;
 10/6=1/2;
 6/7=2,8=2,9=2,10=2,18=1,28=1/1;
 7/8=1,10=1,25=1/1,2,3,16;
 1/10=4,30=1/3;
 99//99;
 ----------------------------------------------------------------------
 Emim+ (optimised with b3lyp+gd3bj / aug-cc-pvtz) and Cl- in the back p
 osition created on; Thu Apr 16 19:11:52 BST 2015, from; CJS1_emim-cl_B
 _init.com created on; Sun Apr 19 10:11:24 BST 2015, from; CJS1_emim-cl
 _B_6-311+g-d-p-_gd3bj_opt-modredundant_difrz_err.com created on; Sun A
 pr 19 19:58:24 BST 2015, from; CJS1_emim-cl_B_6-311+g-d-p-_gd3bj_opt-m
 odredundant_unfrz.com
 ----------------------------------------------------------------------
 Structure from the checkpoint file:  "CJS1_emim-cl_B_6-311+g-d-p-_gd3bj_freq_unfrz.chk"
 Charge =  0 Multiplicity = 1
 Redundant internal coordinates found in file.
 C,0,-0.0113829866,0.7578307703,-0.1134322391
 C,0,-1.2082310823,1.376138746,0.0963740994
 C,0,-1.6074771549,-0.7801397595,-0.1750769045
 N,0,-0.2926193994,-0.5867347272,-0.2826436079
 H,0,1.0347928871,1.0914802697,-0.203867938
 H,0,-1.44359872,2.4131295981,0.2607225568
 H,0,-2.115886279,-1.7248516341,-0.2604228135
 N,0,-2.1955880209,0.4028664824,0.054680339
 C,0,0.7207698774,-1.6468794134,-0.5002264302
 C,0,1.3576062916,-2.080353207,0.8121843236
 H,0,1.4849148358,-1.2061062797,-1.1462813868
 H,0,0.2080057276,-2.4665327452,-1.0078735531
 H,0,2.0668425453,-2.885626,0.6105343416
 H,0,1.9210447595,-1.2473607832,1.2348841849
 H,0,0.613193063,-2.4407616122,1.528699949
 C,0,-3.6287712734,0.6300610522,0.2158227299
 H,0,-3.8218330099,1.0878163534,1.1861486062
 H,0,-3.9914475854,1.2840084174,-0.5776390994
 H,0,-4.1499822324,-0.3239541579,0.1604150364
 Cl,0,3.0724846741,0.6786213066,-0.7427580292
 Recover connectivity data from disk.

 GradGradGradGradGradGradGradGradGradGradGradGradGradGradGradGradGradGrad
 Berny optimization.
 Initialization pass.
                           ----------------------------
                           !    Initial Parameters    !
                           ! (Angstroms and Degrees)  !
 --------------------------                            --------------------------
 ! Name  Definition              Value          Derivative Info.                !
 --------------------------------------------------------------------------------
 ! R1    R(1,2)                  1.3634         calculate D2E/DX2 analytically  !
 ! R2    R(1,4)                  1.384          calculate D2E/DX2 analytically  !
 ! R3    R(1,5)                  1.1018         calculate D2E/DX2 analytically  !
 ! R4    R(2,6)                  1.076          calculate D2E/DX2 analytically  !
 ! R5    R(2,8)                  1.387          calculate D2E/DX2 analytically  !
 ! R6    R(3,4)                  1.3334         calculate D2E/DX2 analytically  !
 ! R7    R(3,7)                  1.0762         calculate D2E/DX2 analytically  !
 ! R8    R(3,8)                  1.341          calculate D2E/DX2 analytically  !
 ! R9    R(4,9)                  1.4826         calculate D2E/DX2 analytically  !
 ! R10   R(5,20)                 2.1478         calculate D2E/DX2 analytically  !
 ! R11   R(6,20)                 4.9407         calculate D2E/DX2 analytically  !
 ! R12   R(8,16)                 1.46           calculate D2E/DX2 analytically  !
 ! R13   R(9,10)                 1.5218         calculate D2E/DX2 analytically  !
 ! R14   R(9,11)                 1.0934         calculate D2E/DX2 analytically  !
 ! R15   R(9,12)                 1.092          calculate D2E/DX2 analytically  !
 ! R16   R(10,13)                1.0919         calculate D2E/DX2 analytically  !
 ! R17   R(10,14)                1.0909         calculate D2E/DX2 analytically  !
 ! R18   R(10,15)                1.0943         calculate D2E/DX2 analytically  !
 ! R19   R(16,17)                1.0901         calculate D2E/DX2 analytically  !
 ! R20   R(16,18)                1.0903         calculate D2E/DX2 analytically  !
 ! R21   R(16,19)                1.0885         calculate D2E/DX2 analytically  !
 ! A1    A(2,1,4)              106.3206         calculate D2E/DX2 analytically  !
 ! A2    A(2,1,5)              135.1401         calculate D2E/DX2 analytically  !
 ! A3    A(4,1,5)              118.4952         calculate D2E/DX2 analytically  !
 ! A4    A(1,2,6)              130.7387         calculate D2E/DX2 analytically  !
 ! A5    A(1,2,8)              107.5807         calculate D2E/DX2 analytically  !
 ! A6    A(6,2,8)              121.6774         calculate D2E/DX2 analytically  !
 ! A7    A(4,3,7)              125.9289         calculate D2E/DX2 analytically  !
 ! A8    A(4,3,8)              108.5631         calculate D2E/DX2 analytically  !
 ! A9    A(7,3,8)              125.5078         calculate D2E/DX2 analytically  !
 ! A10   A(1,4,3)              109.3557         calculate D2E/DX2 analytically  !
 ! A11   A(1,4,9)              125.0085         calculate D2E/DX2 analytically  !
 ! A12   A(3,4,9)              125.6016         calculate D2E/DX2 analytically  !
 ! A13   A(2,6,20)              55.298          calculate D2E/DX2 analytically  !
 ! A14   A(2,8,3)              108.1793         calculate D2E/DX2 analytically  !
 ! A15   A(2,8,16)             125.8922         calculate D2E/DX2 analytically  !
 ! A16   A(3,8,16)             125.9242         calculate D2E/DX2 analytically  !
 ! A17   A(4,9,10)             111.2933         calculate D2E/DX2 analytically  !
 ! A18   A(4,9,11)             106.0299         calculate D2E/DX2 analytically  !
 ! A19   A(4,9,12)             106.498          calculate D2E/DX2 analytically  !
 ! A20   A(10,9,11)            109.3857         calculate D2E/DX2 analytically  !
 ! A21   A(10,9,12)            112.5576         calculate D2E/DX2 analytically  !
 ! A22   A(11,9,12)            110.8582         calculate D2E/DX2 analytically  !
 ! A23   A(9,10,13)            108.8223         calculate D2E/DX2 analytically  !
 ! A24   A(9,10,14)            109.4393         calculate D2E/DX2 analytically  !
 ! A25   A(9,10,15)            111.9517         calculate D2E/DX2 analytically  !
 ! A26   A(13,10,14)           107.4117         calculate D2E/DX2 analytically  !
 ! A27   A(13,10,15)           108.6574         calculate D2E/DX2 analytically  !
 ! A28   A(14,10,15)           110.4348         calculate D2E/DX2 analytically  !
 ! A29   A(8,16,17)            109.7208         calculate D2E/DX2 analytically  !
 ! A30   A(8,16,18)            109.8489         calculate D2E/DX2 analytically  !
 ! A31   A(8,16,19)            109.1491         calculate D2E/DX2 analytically  !
 ! A32   A(17,16,18)           109.6946         calculate D2E/DX2 analytically  !
 ! A33   A(17,16,19)           109.1799         calculate D2E/DX2 analytically  !
 ! A34   A(18,16,19)           109.2295         calculate D2E/DX2 analytically  !
 ! A35   A(5,20,6)               9.7212         calculate D2E/DX2 analytically  !
 ! A36   L(1,5,20,10,-1)       155.8761         calculate D2E/DX2 analytically  !
 ! A37   L(1,5,20,10,-2)       161.4931         calculate D2E/DX2 analytically  !
 ! D1    D(4,1,2,6)           -179.2271         calculate D2E/DX2 analytically  !
 ! D2    D(4,1,2,8)              0.1187         calculate D2E/DX2 analytically  !
 ! D3    D(5,1,2,6)             -1.7864         calculate D2E/DX2 analytically  !
 ! D4    D(5,1,2,8)            177.5593         calculate D2E/DX2 analytically  !
 ! D5    D(2,1,4,3)             -0.2272         calculate D2E/DX2 analytically  !
 ! D6    D(2,1,4,9)           -178.1987         calculate D2E/DX2 analytically  !
 ! D7    D(5,1,4,3)           -178.1733         calculate D2E/DX2 analytically  !
 ! D8    D(5,1,4,9)              3.8552         calculate D2E/DX2 analytically  !
 ! D9    D(2,1,20,6)             6.1259         calculate D2E/DX2 analytically  !
 ! D10   D(4,1,20,6)           173.5014         calculate D2E/DX2 analytically  !
 ! D11   D(1,2,6,20)             4.0675         calculate D2E/DX2 analytically  !
 ! D12   D(8,2,6,20)          -175.1997         calculate D2E/DX2 analytically  !
 ! D13   D(1,2,8,3)              0.0281         calculate D2E/DX2 analytically  !
 ! D14   D(1,2,8,16)          -179.2469         calculate D2E/DX2 analytically  !
 ! D15   D(6,2,8,3)            179.4457         calculate D2E/DX2 analytically  !
 ! D16   D(6,2,8,16)             0.1706         calculate D2E/DX2 analytically  !
 ! D17   D(7,3,4,1)           -179.9111         calculate D2E/DX2 analytically  !
 ! D18   D(7,3,4,9)             -1.9545         calculate D2E/DX2 analytically  !
 ! D19   D(8,3,4,1)              0.2487         calculate D2E/DX2 analytically  !
 ! D20   D(8,3,4,9)            178.2053         calculate D2E/DX2 analytically  !
 ! D21   D(20,3,4,1)            22.06           calculate D2E/DX2 analytically  !
 ! D22   D(4,3,8,2)             -0.1709         calculate D2E/DX2 analytically  !
 ! D23   D(4,3,8,16)           179.1039         calculate D2E/DX2 analytically  !
 ! D24   D(7,3,8,2)            179.988          calculate D2E/DX2 analytically  !
 ! D25   D(7,3,8,16)            -0.7372         calculate D2E/DX2 analytically  !
 ! D26   D(1,4,9,10)            80.7944         calculate D2E/DX2 analytically  !
 ! D27   D(1,4,9,11)           -38.0633         calculate D2E/DX2 analytically  !
 ! D28   D(1,4,9,12)          -156.1925         calculate D2E/DX2 analytically  !
 ! D29   D(3,4,9,10)           -96.8516         calculate D2E/DX2 analytically  !
 ! D30   D(3,4,9,11)           144.2907         calculate D2E/DX2 analytically  !
 ! D31   D(3,4,9,12)            26.1615         calculate D2E/DX2 analytically  !
 ! D32   D(2,6,20,5)           -20.5053         calculate D2E/DX2 analytically  !
 ! D33   D(2,8,16,17)          -58.9655         calculate D2E/DX2 analytically  !
 ! D34   D(2,8,16,18)           61.6993         calculate D2E/DX2 analytically  !
 ! D35   D(2,8,16,19)         -178.5641         calculate D2E/DX2 analytically  !
 ! D36   D(3,8,16,17)          121.885          calculate D2E/DX2 analytically  !
 ! D37   D(3,8,16,18)         -117.4502         calculate D2E/DX2 analytically  !
 ! D38   D(3,8,16,19)            2.2864         calculate D2E/DX2 analytically  !
 ! D39   D(4,9,10,13)          177.8545         calculate D2E/DX2 analytically  !
 ! D40   D(4,9,10,14)          -65.045          calculate D2E/DX2 analytically  !
 ! D41   D(4,9,10,15)           57.7363         calculate D2E/DX2 analytically  !
 ! D42   D(11,9,10,13)         -65.3167         calculate D2E/DX2 analytically  !
 ! D43   D(11,9,10,14)          51.7838         calculate D2E/DX2 analytically  !
 ! D44   D(11,9,10,15)         174.5651         calculate D2E/DX2 analytically  !
 ! D45   D(12,9,10,13)          58.3866         calculate D2E/DX2 analytically  !
 ! D46   D(12,9,10,14)         175.487          calculate D2E/DX2 analytically  !
 ! D47   D(12,9,10,15)         -61.7316         calculate D2E/DX2 analytically  !
 --------------------------------------------------------------------------------
 Trust Radius=3.00D-01 FncErr=1.00D-07 GrdErr=1.00D-07
 Number of steps in this run=      2 maximum allowed number of steps=      2.
 GradGradGradGradGradGradGradGradGradGradGradGradGradGradGradGradGradGrad

                          Input orientation:                          
 ---------------------------------------------------------------------
 Center     Atomic      Atomic             Coordinates (Angstroms)
 Number     Number       Type             X           Y           Z
 ---------------------------------------------------------------------
      1          6           0       -0.011383    0.757831   -0.113432
      2          6           0       -1.208231    1.376139    0.096374
      3          6           0       -1.607477   -0.780140   -0.175077
      4          7           0       -0.292619   -0.586735   -0.282644
      5          1           0        1.034793    1.091480   -0.203868
      6          1           0       -1.443599    2.413130    0.260723
      7          1           0       -2.115886   -1.724852   -0.260423
      8          7           0       -2.195588    0.402866    0.054680
      9          6           0        0.720770   -1.646879   -0.500226
     10          6           0        1.357606   -2.080353    0.812184
     11          1           0        1.484915   -1.206106   -1.146281
     12          1           0        0.208006   -2.466533   -1.007874
     13          1           0        2.066843   -2.885626    0.610534
     14          1           0        1.921045   -1.247361    1.234884
     15          1           0        0.613193   -2.440762    1.528700
     16          6           0       -3.628771    0.630061    0.215823
     17          1           0       -3.821833    1.087816    1.186149
     18          1           0       -3.991448    1.284008   -0.577639
     19          1           0       -4.149982   -0.323954    0.160415
     20         17           0        3.072485    0.678621   -0.742758
 ---------------------------------------------------------------------
                    Distance matrix (angstroms):
                    1          2          3          4          5
     1  C    0.000000
     2  C    1.363367   0.000000
     3  C    2.217357   2.209665   0.000000
     4  N    1.384046   2.198834   1.333352   0.000000
     5  H    1.101810   2.280862   3.238114   2.141176   0.000000
     6  H    2.220641   1.075992   3.227034   3.258709   2.846933
     7  H    3.257952   3.250736   1.076218   2.149443   4.226311
     8  N    2.219237   1.387037   1.340957   2.171264   3.313065
     9  C    2.543283   3.635329   2.505533   1.482635   2.772193
    10  C    3.284233   4.363856   3.384813   2.480482   3.346207
    11  H    2.676328   3.932584   3.269186   2.071019   2.523818
    12  H    3.353308   4.241605   2.614087   2.076108   3.740248
    13  H    4.256516   5.399362   4.307074   3.413170   4.188765
    14  H    3.094031   4.239260   3.828414   2.763987   2.885416
    15  H    3.649341   4.465184   3.254519   2.745702   3.956801
    16  C    3.634588   2.535728   2.495416   3.585941   4.705091
    17  H    4.039472   2.846340   3.200870   4.173346   5.051631
    18  H    4.041443   2.865148   3.179006   4.155482   5.043795
    19  H    4.286403   3.398281   2.604802   3.891607   5.386840
    20  Cl   3.148423   4.417601   4.934804   3.624466   2.147800
                    6          7          8          9         10
     6  H    0.000000
     7  H    4.224506   0.000000
     8  N    2.156177   2.152400   0.000000
     9  C    4.663390   2.847842   3.607565   0.000000
    10  C    5.323744   3.652673   4.400612   1.521802   0.000000
    11  H    4.863612   3.744277   4.192518   1.093428   2.148512
    12  H    5.305491   2.551323   3.890981   1.092000   2.187082
    13  H    6.365719   4.427322   5.412160   2.140139   1.091853
    14  H    5.066459   4.331368   4.589422   2.147297   1.090878
    15  H    5.422031   3.340862   4.260071   2.181367   1.094276
    16  C    2.820696   2.839233   1.459999   4.961420   5.706659
    17  H    2.875564   3.593595   2.096199   5.563961   6.083070
    18  H    2.910206   3.559718   2.097940   5.549873   6.470156
    19  H    3.850481   2.505427   2.087847   5.090266   5.817497
    20  Cl   4.940698   5.738338   5.335217   3.316223   3.601471
                   11         12         13         14         15
    11  H    0.000000
    12  H    1.799536   0.000000
    13  H    2.499165   2.500032   0.000000
    14  H    2.421128   3.074223   1.759256   0.000000
    15  H    3.072425   2.568861   1.775959   1.794717   0.000000
    16  C    5.601484   5.080077   6.704914   5.946735   5.398876
    17  H    6.234090   5.804027   7.127137   6.199683   5.677822
    18  H    6.042729   5.646864   7.449865   6.682113   6.285960
    19  H    5.851300   4.994757   6.738967   6.234142   5.388962
    20  Cl   2.497080   4.262337   3.942915   2.991035   4.575826
                   16         17         18         19         20
    16  C    0.000000
    17  H    1.090112   0.000000
    18  H    1.090304   1.782753   0.000000
    19  H    1.088520   1.775643   1.776345   0.000000
    20  Cl   6.769643   7.170756   7.091748   7.347442   0.000000
 Stoichiometry    C6H11ClN2
 Framework group  C1[X(C6H11ClN2)]
 Deg. of freedom    54
 Full point group                 C1      NOp   1
 Largest Abelian subgroup         C1      NOp   1
 Largest concise Abelian subgroup C1      NOp   1
                         Standard orientation:                         
 ---------------------------------------------------------------------
 Center     Atomic      Atomic             Coordinates (Angstroms)
 Number     Number       Type             X           Y           Z
 ---------------------------------------------------------------------
      1          6           0       -0.100553    0.820979    0.163992
      2          6           0       -1.367413    1.294739    0.335422
      3          6           0       -1.523406   -0.799860   -0.350831
      4          7           0       -0.229788   -0.487663   -0.267675
      5          1           0        0.911574    1.246431    0.256579
      6          1           0       -1.718912    2.262408    0.648189
      7          1           0       -1.925308   -1.749815   -0.657920
      8          7           0       -2.245092    0.271294    0.009676
      9          6           0        0.899607   -1.407345   -0.544907
     10          6           0        1.438982   -2.022665    0.738190
     11          1           0        1.678586   -0.797225   -1.010235
     12          1           0        0.524110   -2.157733   -1.243752
     13          1           0        2.240647   -2.719320    0.484913
     14          1           0        1.871983   -1.239676    1.362252
     15          1           0        0.664477   -2.565393    1.288669
     16          6           0       -3.702576    0.352187    0.037892
     17          1           0       -4.037398    0.607906    1.043301
     18          1           0       -4.045010    1.109970   -0.667279
     19          1           0       -4.119286   -0.613372   -0.243043
     20         17           0        3.024168    1.100129   -0.102013
 ---------------------------------------------------------------------
 Rotational constants (GHZ):      2.3825454      0.6887681      0.5622663
 Standard basis: 6-311+G(d,p) (5D, 7F)
 There are   281 symmetry adapted cartesian basis functions of A   symmetry.
 There are   272 symmetry adapted basis functions of A   symmetry.
   272 basis functions,   429 primitive gaussians,   281 cartesian basis functions
    39 alpha electrons       39 beta electrons
       nuclear repulsion energy       513.7892908839 Hartrees.
 NAtoms=   20 NActive=   20 NUniq=   20 SFac= 1.00D+00 NAtFMM=   60 NAOKFM=F Big=F
 Integral buffers will be    131072 words long.
 Raffenetti 2 integral format.
 Two-electron integral symmetry is turned on.
 Nuclear repulsion after empirical dispersion term =      513.7568593979 Hartrees.
 One-electron integrals computed using PRISM.
 NBasis=   272 RedAO= T EigKep=  7.82D-06  NBF=   272
 NBsUse=   272 1.00D-06 EigRej= -1.00D+00 NBFU=   272
 ExpMin= 4.38D-02 ExpMax= 1.06D+05 ExpMxC= 3.62D+03 IAcc=3 IRadAn=         5 AccDes= 0.00D+00
 Harris functional with IExCor=  402 and IRadAn=       5 diagonalized for initial guess.
 HarFok:  IExCor=  402 AccDes= 0.00D+00 IRadAn=         5 IDoV= 1 UseB2=F ITyADJ=14
 ICtDFT=  3500011 ScaDFX=  1.000000  1.000000  1.000000  1.000000
 FoFCou: FMM=F IPFlag=           0 FMFlag=      100000 FMFlg1=           0
         NFxFlg=           0 DoJE=T BraDBF=F KetDBF=T FulRan=T
         wScrn=  0.000000 ICntrl=     500 IOpCl=  0 I1Cent=   200000004 NGrid=           0
         NMat0=    1 NMatS0=      1 NMatT0=    0 NMatD0=    1 NMtDS0=    0 NMtDT0=    0
 Petite list used in FoFCou.
 Keep R1 ints in memory in canonical form, NReq=700735283.
 Requested convergence on RMS density matrix=1.00D-09 within 128 cycles.
 Requested convergence on MAX density matrix=1.00D-07.
 Requested convergence on             energy=1.00D-07.
 No special actions if energy rises.
 SCF Done:  E(RB3LYP) =  -805.105260336     A.U. after   16 cycles
            NFock= 16  Conv=0.32D-09     -V/T= 2.0033
 DoSCS=F DFT=T ScalE2(SS,OS)=  1.000000  1.000000
 Range of M.O.s used for correlation:     1   272
 NBasis=   272 NAE=    39 NBE=    39 NFC=     0 NFV=     0
 NROrb=    272 NOA=    39 NOB=    39 NVA=   233 NVB=   233

 **** Warning!!: The largest alpha MO coefficient is  0.67315335D+02

 Symmetrizing basis deriv contribution to polar:
 IMax=3 JMax=2 DiffMx= 0.00D+00
 G2DrvN: will do    21 centers at a time, making    1 passes.
 Calling FoFCou, ICntrl=  3107 FMM=F I1Cent=   0 AccDes= 0.00D+00.
 End of G2Drv F.D. properties file   721 does not exist.
 End of G2Drv F.D. properties file   722 does not exist.
 End of G2Drv F.D. properties file   788 does not exist.
          IDoAtm=11111111111111111111
          Differentiating once with respect to electric field.
                with respect to dipole field.
          Differentiating once with respect to nuclear coordinates.
 Keep R1 ints in memory in canonical form, NReq=700484180.
          There are    63 degrees of freedom in the 1st order CPHF.  IDoFFX=6 NUNeed=     3.
     60 vectors produced by pass  0 Test12= 1.44D-14 1.59D-09 XBig12= 1.20D+02 5.14D+00.
 AX will form    60 AO Fock derivatives at one time.
     60 vectors produced by pass  1 Test12= 1.44D-14 1.59D-09 XBig12= 2.39D+01 1.31D+00.
     60 vectors produced by pass  2 Test12= 1.44D-14 1.59D-09 XBig12= 1.91D-01 6.56D-02.
     60 vectors produced by pass  3 Test12= 1.44D-14 1.59D-09 XBig12= 7.32D-04 5.18D-03.
     60 vectors produced by pass  4 Test12= 1.44D-14 1.59D-09 XBig12= 1.83D-06 1.90D-04.
     46 vectors produced by pass  5 Test12= 1.44D-14 1.59D-09 XBig12= 3.81D-09 6.75D-06.
     10 vectors produced by pass  6 Test12= 1.44D-14 1.59D-09 XBig12= 5.46D-12 2.28D-07.
      3 vectors produced by pass  7 Test12= 1.44D-14 1.59D-09 XBig12= 5.78D-15 8.24D-09.
 InvSVY:  IOpt=1 It=  1 EMax= 1.07D-14
 Solved reduced A of dimension   359 with    63 vectors.
 Isotropic polarizability for W=    0.000000      106.99 Bohr**3.
 End of Minotr F.D. properties file   721 does not exist.
 End of Minotr F.D. properties file   722 does not exist.
 End of Minotr F.D. properties file   788 does not exist.

 **********************************************************************

            Population analysis using the SCF density.

 **********************************************************************

 Orbital symmetries:
       Occupied  (A) (A) (A) (A) (A) (A) (A) (A) (A) (A) (A) (A)
                 (A) (A) (A) (A) (A) (A) (A) (A) (A) (A) (A) (A)
                 (A) (A) (A) (A) (A) (A) (A) (A) (A) (A) (A) (A)
                 (A) (A) (A)
       Virtual   (A) (A) (A) (A) (A) (A) (A) (A) (A) (A) (A) (A)
                 (A) (A) (A) (A) (A) (A) (A) (A) (A) (A) (A) (A)
                 (A) (A) (A) (A) (A) (A) (A) (A) (A) (A) (A) (A)
                 (A) (A) (A) (A) (A) (A) (A) (A) (A) (A) (A) (A)
                 (A) (A) (A) (A) (A) (A) (A) (A) (A) (A) (A) (A)
                 (A) (A) (A) (A) (A) (A) (A) (A) (A) (A) (A) (A)
                 (A) (A) (A) (A) (A) (A) (A) (A) (A) (A) (A) (A)
                 (A) (A) (A) (A) (A) (A) (A) (A) (A) (A) (A) (A)
                 (A) (A) (A) (A) (A) (A) (A) (A) (A) (A) (A) (A)
                 (A) (A) (A) (A) (A) (A) (A) (A) (A) (A) (A) (A)
                 (A) (A) (A) (A) (A) (A) (A) (A) (A) (A) (A) (A)
                 (A) (A) (A) (A) (A) (A) (A) (A) (A) (A) (A) (A)
                 (A) (A) (A) (A) (A) (A) (A) (A) (A) (A) (A) (A)
                 (A) (A) (A) (A) (A) (A) (A) (A) (A) (A) (A) (A)
                 (A) (A) (A) (A) (A) (A) (A) (A) (A) (A) (A) (A)
                 (A) (A) (A) (A) (A) (A) (A) (A) (A) (A) (A) (A)
                 (A) (A) (A) (A) (A) (A) (A) (A) (A) (A) (A) (A)
                 (A) (A) (A) (A) (A) (A) (A) (A) (A) (A) (A) (A)
                 (A) (A) (A) (A) (A) (A) (A) (A) (A) (A) (A) (A)
                 (A) (A) (A) (A) (A)
 The electronic state is 1-A.
 Alpha  occ. eigenvalues -- -101.37876 -14.45193 -14.43458 -10.31073 -10.27904
 Alpha  occ. eigenvalues --  -10.25628 -10.23906 -10.23154 -10.17231  -9.29262
 Alpha  occ. eigenvalues --   -7.05104  -7.05083  -7.05058  -1.11192  -0.99511
 Alpha  occ. eigenvalues --   -0.84167  -0.81144  -0.77023  -0.68965  -0.67065
 Alpha  occ. eigenvalues --   -0.64668  -0.63546  -0.59169  -0.54794  -0.52321
 Alpha  occ. eigenvalues --   -0.52107  -0.49725  -0.48499  -0.47940  -0.45789
 Alpha  occ. eigenvalues --   -0.45471  -0.41840  -0.39120  -0.37207  -0.34074
 Alpha  occ. eigenvalues --   -0.30160  -0.18443  -0.18232  -0.18062
 Alpha virt. eigenvalues --   -0.06835  -0.03917  -0.02037  -0.01598  -0.00210
 Alpha virt. eigenvalues --    0.00723   0.01166   0.01352   0.02801   0.03706
 Alpha virt. eigenvalues --    0.04479   0.05789   0.06318   0.06621   0.07262
 Alpha virt. eigenvalues --    0.08409   0.09099   0.09417   0.09960   0.10400
 Alpha virt. eigenvalues --    0.11390   0.12047   0.12592   0.13370   0.13944
 Alpha virt. eigenvalues --    0.14295   0.14849   0.15277   0.15646   0.16331
 Alpha virt. eigenvalues --    0.16703   0.17035   0.17706   0.17944   0.18665
 Alpha virt. eigenvalues --    0.19031   0.19464   0.20055   0.20808   0.21969
 Alpha virt. eigenvalues --    0.22768   0.23480   0.23930   0.24120   0.24338
 Alpha virt. eigenvalues --    0.25678   0.25887   0.27666   0.28119   0.28876
 Alpha virt. eigenvalues --    0.29503   0.30795   0.35803   0.36511   0.37079
 Alpha virt. eigenvalues --    0.38218   0.38928   0.39753   0.42082   0.42803
 Alpha virt. eigenvalues --    0.44776   0.47268   0.48144   0.49256   0.51972
 Alpha virt. eigenvalues --    0.52901   0.53937   0.54601   0.55242   0.55660
 Alpha virt. eigenvalues --    0.57681   0.57787   0.58254   0.59279   0.61688
 Alpha virt. eigenvalues --    0.62420   0.63130   0.63280   0.65529   0.65888
 Alpha virt. eigenvalues --    0.67022   0.67482   0.68004   0.70136   0.71324
 Alpha virt. eigenvalues --    0.72507   0.74472   0.76292   0.77614   0.78998
 Alpha virt. eigenvalues --    0.81725   0.84338   0.86253   0.89715   0.90274
 Alpha virt. eigenvalues --    0.93126   0.93973   0.94689   0.98873   0.99818
 Alpha virt. eigenvalues --    1.01559   1.02640   1.03344   1.04296   1.05284
 Alpha virt. eigenvalues --    1.06554   1.08606   1.09760   1.11532   1.13469
 Alpha virt. eigenvalues --    1.17688   1.22893   1.26345   1.26859   1.29187
 Alpha virt. eigenvalues --    1.32176   1.35453   1.36274   1.38375   1.41254
 Alpha virt. eigenvalues --    1.44617   1.46876   1.47820   1.48683   1.51047
 Alpha virt. eigenvalues --    1.53912   1.54935   1.55882   1.57251   1.57391
 Alpha virt. eigenvalues --    1.58715   1.59382   1.59975   1.61955   1.63757
 Alpha virt. eigenvalues --    1.66951   1.69099   1.69784   1.73698   1.74720
 Alpha virt. eigenvalues --    1.76065   1.76905   1.77844   1.78431   1.82518
 Alpha virt. eigenvalues --    1.84181   1.90097   1.93207   1.96789   1.99812
 Alpha virt. eigenvalues --    2.01032   2.05190   2.06685   2.08773   2.10525
 Alpha virt. eigenvalues --    2.13696   2.16107   2.18996   2.23424   2.25354
 Alpha virt. eigenvalues --    2.29096   2.30478   2.34244   2.36666   2.40150
 Alpha virt. eigenvalues --    2.40530   2.40888   2.43926   2.44813   2.45707
 Alpha virt. eigenvalues --    2.46771   2.48079   2.48691   2.50382   2.51747
 Alpha virt. eigenvalues --    2.54151   2.56426   2.57470   2.58778   2.58963
 Alpha virt. eigenvalues --    2.60035   2.62813   2.65233   2.65352   2.69310
 Alpha virt. eigenvalues --    2.71983   2.73454   2.76038   2.77105   2.81454
 Alpha virt. eigenvalues --    2.83608   2.85690   2.88099   2.91821   2.92663
 Alpha virt. eigenvalues --    2.95141   2.96096   3.07926   3.18808   3.26455
 Alpha virt. eigenvalues --    3.36516   3.52796   3.55220   3.60347   3.64325
 Alpha virt. eigenvalues --    3.67727   3.70048   3.77535   3.78296   3.82633
 Alpha virt. eigenvalues --    3.84647   3.86171   3.87121   3.87958   4.07042
 Alpha virt. eigenvalues --    4.21219   4.68292   4.88698   4.92139   5.21964
 Alpha virt. eigenvalues --    9.84885  23.70644  23.83999  23.85171  23.86860
 Alpha virt. eigenvalues --   23.96904  24.14722  25.98242  26.04346  26.16759
 Alpha virt. eigenvalues --   35.41169  35.56589 215.83023
          Condensed to atoms (all electrons):
               1          2          3          4          5          6
     1  C    7.910093  -2.203117   0.057946  -0.397000   0.439912  -0.016013
     2  C   -2.203117   7.961742  -0.240721   0.717515  -0.157255   0.430332
     3  C    0.057946  -0.240721   5.266643   0.396454   0.021376   0.010621
     4  N   -0.397000   0.717515   0.396454   7.081411  -0.062074   0.025740
     5  H    0.439912  -0.157255   0.021376  -0.062074   0.441054  -0.002162
     6  H   -0.016013   0.430332   0.010621   0.025740  -0.002162   0.480227
     7  H    0.037019  -0.021528   0.436976  -0.034582   0.000222  -0.000036
     8  N    0.765979  -0.437558   0.433449  -0.556229   0.033233  -0.077041
     9  C   -1.094098   0.667287  -0.215626  -0.022684  -0.018763  -0.001474
    10  C    0.139676  -0.040916   0.006197   0.014000   0.001311   0.000094
    11  H    0.019578  -0.010802   0.005479  -0.021433  -0.007851   0.000056
    12  H    0.056350  -0.031509   0.029977  -0.033642   0.000220   0.000028
    13  H    0.001497   0.000787   0.002733   0.025302   0.000062  -0.000001
    14  H    0.011982  -0.003477  -0.002732  -0.013155   0.000627   0.000013
    15  H   -0.012155   0.002556  -0.000827  -0.018075  -0.000471   0.000006
    16  C    0.236478  -0.308610  -0.145245  -0.084670   0.000396  -0.010102
    17  H    0.010039  -0.011537  -0.013934  -0.007870   0.000009  -0.000497
    18  H    0.011843  -0.014786  -0.016898  -0.005087   0.000013  -0.000450
    19  H   -0.001634   0.000654   0.028689   0.010465  -0.000001  -0.000037
    20  Cl   0.090591  -0.124145   0.037239   0.059001   0.111226   0.000617
               7          8          9         10         11         12
     1  C    0.037019   0.765979  -1.094098   0.139676   0.019578   0.056350
     2  C   -0.021528  -0.437558   0.667287  -0.040916  -0.010802  -0.031509
     3  C    0.436976   0.433449  -0.215626   0.006197   0.005479   0.029977
     4  N   -0.034582  -0.556229  -0.022684   0.014000  -0.021433  -0.033642
     5  H    0.000222   0.033233  -0.018763   0.001311  -0.007851   0.000220
     6  H   -0.000036  -0.077041  -0.001474   0.000094   0.000056   0.000028
     7  H    0.478851  -0.046580  -0.009328   0.005862   0.000216   0.000757
     8  N   -0.046580   6.916070  -0.238238   0.006750  -0.004993   0.018783
     9  C   -0.009328  -0.238238   7.438365  -0.625005   0.353559   0.257060
    10  C    0.005862   0.006750  -0.625005   5.683645  -0.009836   0.009502
    11  H    0.000216  -0.004993   0.353559  -0.009836   0.424779  -0.020106
    12  H    0.000757   0.018783   0.257060   0.009502  -0.020106   0.580471
    13  H   -0.000022  -0.000191  -0.099180   0.447902  -0.003707  -0.002909
    14  H   -0.000010   0.004325  -0.038327   0.426330  -0.008308   0.006598
    15  H   -0.000203  -0.004325   0.065120   0.332147   0.005598  -0.009373
    16  C   -0.005825   0.319305  -0.096148   0.018287   0.000664   0.005487
    17  H   -0.000078  -0.035281  -0.000562  -0.000271  -0.000002  -0.000001
    18  H   -0.000061  -0.033211  -0.000157  -0.000245  -0.000006  -0.000004
    19  H    0.001520  -0.048544   0.003390  -0.000158  -0.000002   0.000006
    20  Cl   0.000331   0.019752  -0.254373   0.024007   0.045337   0.005581
              13         14         15         16         17         18
     1  C    0.001497   0.011982  -0.012155   0.236478   0.010039   0.011843
     2  C    0.000787  -0.003477   0.002556  -0.308610  -0.011537  -0.014786
     3  C    0.002733  -0.002732  -0.000827  -0.145245  -0.013934  -0.016898
     4  N    0.025302  -0.013155  -0.018075  -0.084670  -0.007870  -0.005087
     5  H    0.000062   0.000627  -0.000471   0.000396   0.000009   0.000013
     6  H   -0.000001   0.000013   0.000006  -0.010102  -0.000497  -0.000450
     7  H   -0.000022  -0.000010  -0.000203  -0.005825  -0.000078  -0.000061
     8  N   -0.000191   0.004325  -0.004325   0.319305  -0.035281  -0.033211
     9  C   -0.099180  -0.038327   0.065120  -0.096148  -0.000562  -0.000157
    10  C    0.447902   0.426330   0.332147   0.018287  -0.000271  -0.000245
    11  H   -0.003707  -0.008308   0.005598   0.000664  -0.000002  -0.000006
    12  H   -0.002909   0.006598  -0.009373   0.005487  -0.000001  -0.000004
    13  H    0.514006  -0.014616  -0.031121   0.000058   0.000000   0.000000
    14  H   -0.014616   0.445642  -0.031122   0.000633  -0.000001   0.000001
    15  H   -0.031121  -0.031122   0.590951  -0.001315   0.000002   0.000001
    16  C    0.000058   0.000633  -0.001315   5.042015   0.425354   0.425411
    17  H    0.000000  -0.000001   0.000002   0.425354   0.501381  -0.033560
    18  H    0.000000   0.000001   0.000001   0.425411  -0.033560   0.496392
    19  H    0.000000   0.000001   0.000005   0.379389  -0.022060  -0.022403
    20  Cl  -0.000413   0.005529  -0.000368   0.003900   0.000001   0.000003
              19         20
     1  C   -0.001634   0.090591
     2  C    0.000654  -0.124145
     3  C    0.028689   0.037239
     4  N    0.010465   0.059001
     5  H   -0.000001   0.111226
     6  H   -0.000037   0.000617
     7  H    0.001520   0.000331
     8  N   -0.048544   0.019752
     9  C    0.003390  -0.254373
    10  C   -0.000158   0.024007
    11  H   -0.000002   0.045337
    12  H    0.000006   0.005581
    13  H    0.000000  -0.000413
    14  H    0.000001   0.005529
    15  H    0.000005  -0.000368
    16  C    0.379389   0.003900
    17  H   -0.022060   0.000001
    18  H   -0.022403   0.000003
    19  H    0.509197  -0.000002
    20  Cl  -0.000002  17.714562
 Mulliken charges:
               1
     1  C   -0.064963
     2  C   -0.174911
     3  C   -0.097794
     4  N   -0.073385
     5  H    0.198917
     6  H    0.160079
     7  H    0.156500
     8  N   -0.035455
     9  C   -0.070818
    10  C   -0.439279
    11  H    0.231780
    12  H    0.126722
    13  H    0.159814
    14  H    0.210067
    15  H    0.112970
    16  C   -0.205461
    17  H    0.188867
    18  H    0.193205
    19  H    0.161524
    20  Cl  -0.738376
 Sum of Mulliken charges =   0.00000
 Mulliken charges with hydrogens summed into heavy atoms:
               1
     1  C    0.133953
     2  C   -0.014833
     3  C    0.058705
     4  N   -0.073385
     8  N   -0.035455
     9  C    0.287684
    10  C    0.043572
    16  C    0.338134
    20  Cl  -0.738376
 APT charges:
               1
     1  C   -0.085963
     2  C   -0.022043
     3  C    0.200306
     4  N   -0.259782
     5  H    0.405898
     6  H    0.109215
     7  H    0.115040
     8  N   -0.319325
     9  C    0.296321
    10  C    0.006284
    11  H    0.135657
    12  H   -0.048256
    13  H    0.009105
    14  H    0.060540
    15  H   -0.027237
    16  C    0.344451
    17  H    0.007954
    18  H    0.005199
    19  H    0.021295
    20  Cl  -0.954657
 Sum of APT charges =   0.00000
 APT charges with hydrogens summed into heavy atoms:
               1
     1  C    0.319935
     2  C    0.087172
     3  C    0.315346
     4  N   -0.259782
     8  N   -0.319325
     9  C    0.383721
    10  C    0.048692
    16  C    0.378899
    20  Cl  -0.954657
 Electronic spatial extent (au):  <R**2>=           1977.0063
 Charge=              0.0000 electrons
 Dipole moment (field-independent basis, Debye):
    X=            -15.4673    Y=             -4.8538    Z=             -0.0260  Tot=             16.2110
 Quadrupole moment (field-independent basis, Debye-Ang):
   XX=            -76.2936   YY=            -60.8679   ZZ=            -64.7605
   XY=            -15.6877   XZ=              1.2816   YZ=              3.5381
 Traceless Quadrupole moment (field-independent basis, Debye-Ang):
   XX=             -8.9863   YY=              6.4394   ZZ=              2.5468
   XY=            -15.6877   XZ=              1.2816   YZ=              3.5381
 Octapole moment (field-independent basis, Debye-Ang**2):
  XXX=           -194.0877  YYY=            -11.8606  ZZZ=             -0.6559  XYY=            -29.6395
  XXY=            -40.0756  XXZ=              3.5219  XZZ=             -8.7900  YZZ=             -3.6071
  YYZ=             -0.2396  XYZ=             -1.7938
 Hexadecapole moment (field-independent basis, Debye-Ang**3):
 XXXX=          -2061.7451 YYYY=           -598.4689 ZZZZ=           -155.2106 XXXY=           -164.6741
 XXXZ=             11.5756 YYYX=            -48.7123 YYYZ=             18.4223 ZZZX=             -0.5859
 ZZZY=              3.6723 XXYY=           -442.9452 XXZZ=           -354.1199 YYZZ=           -127.1633
 XXYZ=             12.6225 YYXZ=              2.6640 ZZXY=            -10.0629
 N-N= 5.137568593979D+02 E-N=-2.921979972372D+03  KE= 8.024378747144D+02
  Exact polarizability: 139.165  -0.612 105.645  -0.033   5.235  76.156
 Approx polarizability: 176.852   1.475 154.088  -1.169  14.069 111.072
 Calling FoFJK, ICntrl=    100127 FMM=F ISym2X=0 I1Cent= 0 IOpClX= 0 NMat=1 NMatS=1 NMatT=0.
 Full mass-weighted force constant matrix:
 Low frequencies ---  -20.0121  -14.1692  -12.8761   -0.0024   -0.0015    0.0026
 Low frequencies ---   32.0336   63.5783   79.7527
 Diagonal vibrational polarizability:
       76.1208827      33.3093291      39.4048181
 Harmonic frequencies (cm**-1), IR intensities (KM/Mole), Raman scattering
 activities (A**4/AMU), depolarization ratios for plane and unpolarized
 incident light, reduced masses (AMU), force constants (mDyne/A),
 and normal coordinates:
                      1                      2                      3
                      A                      A                      A
 Frequencies --     31.9351                63.5740                79.7425
 Red. masses --      4.2793                 1.0910                 2.4916
 Frc consts  --      0.0026                 0.0026                 0.0093
 IR Inten    --      1.4663                 0.1236                 2.7800
  Atom  AN      X      Y      Z        X      Y      Z        X      Y      Z
     1   6     0.01  -0.10   0.30     0.00   0.00  -0.01    -0.01  -0.03   0.00
     2   6     0.01  -0.07   0.21     0.00   0.01  -0.03    -0.01  -0.01   0.00
     3   6     0.00   0.04  -0.10     0.00   0.00  -0.02    -0.04   0.00  -0.01
     4   7     0.01  -0.03   0.10     0.00   0.00   0.00    -0.04  -0.03  -0.01
     5   1     0.01  -0.13   0.39     0.00   0.00  -0.01    -0.01  -0.05   0.00
     6   1     0.02  -0.09   0.29     0.00   0.01  -0.04     0.01  -0.01   0.01
     7   1     0.00   0.10  -0.28     0.00   0.00  -0.02    -0.06   0.01  -0.02
     8   7     0.01   0.02  -0.04     0.00   0.01  -0.04    -0.03   0.01   0.00
     9   6     0.00  -0.03   0.07     0.00   0.00   0.01    -0.05  -0.04  -0.05
    10   6     0.06  -0.01   0.05    -0.01   0.02   0.03     0.21   0.22  -0.04
    11   1    -0.02  -0.03   0.03     0.00  -0.01   0.01    -0.16  -0.11  -0.30
    12   1    -0.02  -0.04   0.09     0.00  -0.02   0.02    -0.16  -0.18   0.16
    13   1     0.05  -0.01   0.03    -0.01   0.01   0.04     0.16   0.17  -0.07
    14   1     0.08   0.00   0.03    -0.01   0.03   0.01     0.35   0.35  -0.29
    15   1     0.08   0.00   0.09    -0.01   0.03   0.03     0.32   0.33   0.22
    16   6     0.01   0.09  -0.22     0.00  -0.02   0.05    -0.02   0.04   0.00
    17   1    -0.12  -0.05  -0.23     0.01  -0.58   0.20    -0.02   0.06  -0.01
    18   1     0.14   0.21  -0.15    -0.01   0.37   0.47    -0.01   0.03  -0.02
    19   1     0.00   0.15  -0.42     0.00   0.14  -0.49    -0.04   0.04   0.01
    20  17    -0.04   0.03  -0.13     0.00  -0.01   0.00    -0.01  -0.07   0.05
                      4                      5                      6
                      A                      A                      A
 Frequencies --    106.3069               130.0706               171.3381
 Red. masses --      4.9524                 3.1645                12.4844
 Frc consts  --      0.0330                 0.0315                 0.2159
 IR Inten    --      9.4953                 2.4186                53.6710
  Atom  AN      X      Y      Z        X      Y      Z        X      Y      Z
     1   6    -0.08   0.14   0.08    -0.04   0.07   0.01     0.15   0.10  -0.01
     2   6    -0.13   0.02   0.09    -0.05   0.08  -0.11     0.15   0.08  -0.04
     3   6     0.07   0.06  -0.06     0.01  -0.02   0.20     0.20   0.09  -0.07
     4   7     0.03   0.16  -0.01     0.00   0.01   0.19     0.19   0.10  -0.04
     5   1    -0.13   0.20   0.13    -0.05   0.11  -0.03     0.15   0.11   0.03
     6   1    -0.22  -0.03   0.16    -0.08   0.12  -0.27     0.12   0.06  -0.02
     7   1     0.16   0.04  -0.12     0.03  -0.06   0.29     0.22   0.08  -0.07
     8   7    -0.04  -0.03   0.01    -0.02   0.02   0.01     0.18   0.07  -0.06
     9   6     0.09   0.21   0.02     0.01   0.06   0.02     0.12   0.00   0.01
    10   6    -0.04   0.14   0.04     0.16  -0.13  -0.14     0.05  -0.03   0.03
    11   1     0.12   0.27   0.15    -0.04   0.16   0.05     0.18  -0.10  -0.01
    12   1     0.16   0.25  -0.06    -0.01   0.16  -0.06     0.04   0.01   0.03
    13   1     0.02   0.20   0.09     0.19  -0.01  -0.35    -0.08  -0.19   0.05
    14   1    -0.15   0.12   0.14     0.16  -0.21  -0.02     0.17  -0.07  -0.01
    15   1    -0.08   0.07  -0.09     0.25  -0.30  -0.17    -0.04   0.12   0.06
    16   6    -0.05  -0.20  -0.03    -0.03   0.01  -0.12     0.18  -0.02   0.09
    17   1    -0.10  -0.18  -0.05    -0.14  -0.11  -0.13     0.29   0.05   0.11
    18   1    -0.13  -0.28  -0.07     0.05   0.10  -0.07     0.04  -0.11   0.07
    19   1     0.07  -0.26   0.02     0.00   0.05  -0.29     0.21  -0.08   0.25
    20  17     0.06  -0.19  -0.05    -0.02  -0.04   0.00    -0.48  -0.14   0.02
                      7                      8                      9
                      A                      A                      A
 Frequencies --    207.0686               223.5101               298.9680
 Red. masses --      1.1765                 3.1968                 2.0191
 Frc consts  --      0.0297                 0.0941                 0.1063
 IR Inten    --      2.2133                 3.8182                 3.7305
  Atom  AN      X      Y      Z        X      Y      Z        X      Y      Z
     1   6     0.00  -0.04  -0.01     0.03   0.02  -0.13     0.05   0.04   0.02
     2   6     0.01  -0.02  -0.01     0.03  -0.05   0.10     0.05   0.07   0.02
     3   6    -0.02  -0.02  -0.02     0.02  -0.06   0.14     0.01   0.08   0.02
     4   7    -0.02  -0.03  -0.01     0.02   0.02  -0.10     0.01   0.03   0.01
     5   1     0.01  -0.05  -0.01     0.03   0.05  -0.23     0.07   0.01   0.00
     6   1     0.03  -0.01   0.00     0.04  -0.06   0.13     0.08   0.08   0.03
     7   1    -0.04  -0.01  -0.02     0.02  -0.07   0.18    -0.01   0.09   0.03
     8   7     0.00   0.00  -0.01     0.03  -0.09   0.24     0.03   0.07   0.02
     9   6     0.04   0.02   0.01     0.02   0.02  -0.07    -0.14  -0.12  -0.02
    10   6     0.03   0.03   0.01    -0.08   0.08   0.00    -0.04   0.00  -0.02
    11   1     0.02   0.09   0.06     0.04   0.00  -0.05    -0.14  -0.29  -0.24
    12   1     0.12   0.02  -0.03     0.04   0.00  -0.06    -0.33  -0.17   0.14
    13   1     0.41   0.46   0.06    -0.04   0.08   0.13     0.20   0.27   0.01
    14   1    -0.45   0.10   0.25    -0.16   0.13   0.00    -0.31   0.10   0.04
    15   1     0.16  -0.42  -0.25    -0.13   0.10  -0.04     0.09  -0.26  -0.09
    16   6     0.00   0.06   0.03     0.03   0.06  -0.16     0.02  -0.16  -0.05
    17   1     0.05   0.09   0.04    -0.26  -0.10  -0.22    -0.11  -0.23  -0.08
    18   1     0.01   0.07   0.03     0.36   0.23  -0.12    -0.09  -0.23  -0.08
    19   1    -0.06   0.08   0.06     0.01   0.17  -0.49     0.23  -0.24  -0.08
    20  17    -0.02  -0.01   0.00    -0.03  -0.01   0.00     0.01   0.02   0.00
                     10                     11                     12
                      A                      A                      A
 Frequencies --    389.0057               425.4926               595.2206
 Red. masses --      3.3854                 2.4966                 3.6504
 Frc consts  --      0.3018                 0.2663                 0.7620
 IR Inten    --      3.4866                 6.9807                 3.7440
  Atom  AN      X      Y      Z        X      Y      Z        X      Y      Z
     1   6     0.06  -0.13   0.14     0.04  -0.10  -0.08    -0.01   0.00   0.10
     2   6     0.08   0.00  -0.09     0.11   0.06   0.04    -0.03   0.05  -0.02
     3   6    -0.01  -0.07   0.13    -0.13   0.07  -0.01     0.03   0.06   0.10
     4   7    -0.02  -0.09   0.13    -0.09  -0.08  -0.06     0.10   0.00  -0.07
     5   1     0.09  -0.18   0.15     0.09  -0.19  -0.12    -0.06   0.08   0.19
     6   1     0.12   0.07  -0.24     0.27   0.10   0.09     0.05   0.10  -0.07
     7   1    -0.04  -0.07   0.19    -0.29   0.14  -0.01     0.02   0.02   0.25
     8   7     0.05   0.03  -0.08    -0.02   0.13   0.06    -0.10   0.07   0.00
     9   6    -0.01   0.10  -0.14     0.08   0.07   0.05     0.24  -0.18  -0.16
    10   6    -0.16   0.17  -0.08     0.06  -0.02   0.03     0.03  -0.03   0.02
    11   1    -0.06   0.24  -0.04     0.06   0.28   0.28     0.23  -0.19  -0.18
    12   1     0.07   0.15  -0.23     0.35   0.10  -0.13     0.14  -0.18  -0.11
    13   1    -0.18   0.06   0.19    -0.03  -0.10  -0.05     0.09  -0.11   0.44
    14   1    -0.22   0.24  -0.12     0.20  -0.09   0.04    -0.16   0.11  -0.03
    15   1    -0.32   0.35  -0.13     0.05   0.04   0.07    -0.15   0.13  -0.07
    16   6     0.06  -0.04  -0.01    -0.05  -0.10  -0.03    -0.24   0.02   0.01
    17   1     0.08  -0.05   0.00    -0.20  -0.19  -0.06    -0.24   0.01   0.01
    18   1    -0.03  -0.09  -0.01    -0.17  -0.19  -0.07    -0.25   0.01   0.00
    19   1     0.11  -0.08   0.03     0.21  -0.20  -0.07    -0.18   0.00   0.00
    20  17    -0.01   0.00   0.00    -0.01  -0.01   0.00     0.00   0.00   0.00
                     13                     14                     15
                      A                      A                      A
 Frequencies --    626.9259               665.3485               706.2792
 Red. masses --      3.2620                 2.7883                 3.6904
 Frc consts  --      0.7554                 0.7273                 1.0846
 IR Inten    --     10.7656                11.8170                 0.8221
  Atom  AN      X      Y      Z        X      Y      Z        X      Y      Z
     1   6     0.00   0.04  -0.13     0.02   0.06  -0.18    -0.21   0.03   0.00
     2   6     0.00  -0.08   0.24     0.02  -0.03   0.06    -0.17   0.11   0.03
     3   6     0.00  -0.05   0.16     0.02   0.04  -0.08    -0.09   0.01   0.01
     4   7     0.00   0.01  -0.01     0.04  -0.09   0.27    -0.07  -0.07   0.01
     5   1     0.00   0.07  -0.21     0.02   0.12  -0.34    -0.28   0.09   0.05
     6   1     0.00  -0.17   0.52     0.04  -0.07   0.23    -0.28   0.05   0.10
     7   1     0.01  -0.19   0.58     0.04   0.23  -0.68    -0.32   0.15  -0.09
     8   7     0.00   0.08  -0.27    -0.02   0.00   0.01     0.07   0.06   0.02
     9   6    -0.01   0.00   0.00     0.05  -0.03  -0.05     0.11  -0.12  -0.09
    10   6     0.00   0.00   0.00    -0.01   0.01  -0.02     0.03  -0.04   0.02
    11   1    -0.01   0.01   0.02    -0.02   0.04  -0.07     0.07   0.01   0.01
    12   1     0.01   0.01  -0.01    -0.03   0.01  -0.06     0.15  -0.07  -0.17
    13   1     0.00   0.00  -0.01     0.02  -0.04   0.23     0.09  -0.07   0.31
    14   1     0.00   0.00  -0.01    -0.13   0.10  -0.05    -0.09   0.12  -0.09
    15   1     0.01   0.00   0.01    -0.13   0.13  -0.07    -0.05   0.09   0.03
    16   6     0.00   0.01  -0.03    -0.08   0.01   0.00     0.30  -0.01   0.00
    17   1     0.19  -0.01   0.04    -0.06   0.01   0.01     0.24  -0.03  -0.02
    18   1    -0.19  -0.01   0.04    -0.08   0.01   0.00     0.24  -0.04  -0.01
    19   1     0.01  -0.02   0.05    -0.07   0.00   0.03     0.34  -0.02   0.00
    20  17     0.00   0.00   0.00     0.00   0.00   0.00     0.01   0.00   0.00
                     16                     17                     18
                      A                      A                      A
 Frequencies --    743.8737               802.1970               805.1282
 Red. masses --      1.4244                 1.2690                 1.2682
 Frc consts  --      0.4644                 0.4812                 0.4844
 IR Inten    --      7.8613                20.9963                31.5851
  Atom  AN      X      Y      Z        X      Y      Z        X      Y      Z
     1   6     0.01   0.00   0.01     0.01   0.02   0.00    -0.01  -0.02  -0.01
     2   6     0.00   0.03  -0.11     0.00   0.02  -0.07     0.00   0.02  -0.06
     3   6     0.00  -0.05   0.13     0.02   0.03  -0.08    -0.02   0.02  -0.09
     4   7     0.00   0.02  -0.05     0.01  -0.01   0.04    -0.01  -0.02   0.05
     5   1     0.01  -0.08   0.25     0.00   0.01   0.09     0.00  -0.06   0.04
     6   1     0.01  -0.23   0.72     0.00  -0.15   0.45     0.01  -0.13   0.42
     7   1     0.00   0.17  -0.53     0.06  -0.15   0.43    -0.04  -0.15   0.46
     8   7     0.00   0.00  -0.02     0.00  -0.02   0.03     0.00   0.00   0.03
     9   6    -0.01   0.01   0.01    -0.05  -0.05  -0.01     0.05   0.05   0.00
    10   6     0.00   0.00   0.01    -0.02  -0.02  -0.01     0.02   0.02  -0.01
    11   1     0.00  -0.02  -0.01     0.06   0.09   0.33    -0.08  -0.07  -0.35
    12   1    -0.01  -0.02   0.04     0.11   0.18  -0.34    -0.13  -0.16   0.32
    13   1    -0.01   0.01  -0.05     0.10   0.10   0.05    -0.10  -0.12   0.01
    14   1     0.02  -0.03   0.03    -0.03   0.21  -0.28     0.00  -0.19   0.26
    15   1     0.01  -0.02  -0.01     0.17   0.01   0.28    -0.20   0.02  -0.30
    16   6    -0.01   0.00   0.00    -0.01   0.00   0.00     0.01   0.00   0.00
    17   1     0.00  -0.01   0.00    -0.04   0.01  -0.01    -0.03   0.00  -0.01
    18   1    -0.01   0.00   0.01     0.03   0.01  -0.01     0.04   0.00  -0.01
    19   1    -0.01   0.00   0.01    -0.03   0.01  -0.02     0.02   0.00  -0.02
    20  17     0.00   0.00   0.00     0.00   0.00   0.00     0.00   0.00   0.00
                     19                     20                     21
                      A                      A                      A
 Frequencies --    963.5046               995.6164              1034.3688
 Red. masses --      2.3062                 1.2282                 2.8154
 Frc consts  --      1.2614                 0.7173                 1.7747
 IR Inten    --      5.6537                14.7460                23.0716
  Atom  AN      X      Y      Z        X      Y      Z        X      Y      Z
     1   6    -0.09  -0.07  -0.05    -0.01   0.02  -0.12     0.15   0.22   0.04
     2   6    -0.04   0.02   0.02     0.01  -0.02   0.03     0.05   0.08   0.04
     3   6     0.08   0.04   0.01     0.00   0.00   0.00    -0.12  -0.08  -0.03
     4   7     0.08  -0.07   0.01     0.00   0.00   0.02    -0.10  -0.01   0.01
     5   1    -0.22   0.05   0.22    -0.03  -0.24   0.92     0.38  -0.18   0.22
     6   1     0.13   0.09  -0.01     0.06   0.06  -0.17    -0.47  -0.06  -0.07
     7   1     0.03   0.06   0.02     0.03  -0.02   0.04    -0.26  -0.05   0.00
     8   7     0.01   0.04   0.02     0.00   0.00   0.01     0.01  -0.08  -0.02
     9   6     0.07  -0.08   0.13    -0.02   0.02  -0.02     0.08  -0.12   0.06
    10   6    -0.13   0.12  -0.12     0.02  -0.02   0.01    -0.03   0.07  -0.08
    11   1     0.18  -0.14   0.22    -0.05   0.05  -0.04     0.06  -0.03   0.14
    12   1     0.17  -0.19   0.19    -0.06   0.05  -0.03     0.32  -0.23   0.06
    13   1    -0.19   0.23  -0.63     0.04  -0.04   0.12    -0.09   0.02  -0.17
    14   1     0.14  -0.03  -0.12    -0.03   0.01   0.01     0.02  -0.03  -0.01
    15   1     0.09  -0.12  -0.06    -0.02   0.03   0.00    -0.05   0.02  -0.16
    16   6    -0.01   0.01   0.00     0.00   0.00   0.00    -0.01  -0.04  -0.01
    17   1    -0.03  -0.01   0.00     0.01  -0.01   0.00     0.08   0.04   0.00
    18   1    -0.03   0.00   0.00    -0.01   0.00   0.00     0.06   0.04   0.03
    19   1     0.04  -0.01   0.00     0.01   0.00   0.00    -0.21   0.04   0.02
    20  17     0.00   0.00   0.00     0.00   0.00   0.00     0.00   0.00   0.00
                     22                     23                     24
                      A                      A                      A
 Frequencies --   1048.9125              1099.1609              1110.5142
 Red. masses --      2.9715                 1.6049                 1.9929
 Frc consts  --      1.9262                 1.1424                 1.4481
 IR Inten    --      0.4009                 4.6048                 3.1183
  Atom  AN      X      Y      Z        X      Y      Z        X      Y      Z
     1   6    -0.12  -0.03   0.00    -0.01   0.04   0.01    -0.02  -0.04   0.00
     2   6     0.05   0.31   0.10    -0.01   0.04   0.01     0.01   0.00   0.00
     3   6     0.09  -0.12  -0.04     0.04  -0.14  -0.05    -0.02  -0.04  -0.01
     4   7    -0.02  -0.06  -0.02    -0.02  -0.03  -0.01    -0.01   0.06  -0.03
     5   1    -0.03  -0.23  -0.11     0.03  -0.05   0.00    -0.01  -0.06  -0.07
     6   1     0.30   0.41   0.14    -0.20  -0.02  -0.01     0.12   0.04   0.02
     7   1     0.27  -0.20  -0.07     0.26  -0.24  -0.08     0.08  -0.07  -0.04
     8   7     0.07  -0.06  -0.02     0.05   0.04   0.01     0.00   0.00   0.01
     9   6    -0.04   0.03  -0.02    -0.01   0.00  -0.02     0.03   0.00   0.21
    10   6     0.02  -0.02   0.02     0.00   0.00   0.02     0.04  -0.05  -0.18
    11   1    -0.07   0.04  -0.05    -0.02   0.02  -0.02     0.01  -0.07   0.10
    12   1    -0.02   0.02  -0.02     0.03  -0.03  -0.02    -0.14   0.11   0.18
    13   1     0.01  -0.03   0.06    -0.02   0.00  -0.03     0.19  -0.09   0.48
    14   1    -0.01  -0.01   0.03     0.03  -0.03   0.03    -0.35   0.28  -0.32
    15   1     0.00   0.00   0.02     0.02  -0.03   0.01    -0.23   0.36  -0.16
    16   6    -0.07  -0.07  -0.02    -0.03   0.13   0.04     0.01   0.02   0.00
    17   1     0.15   0.14   0.00    -0.40  -0.22   0.01    -0.01  -0.04   0.01
    18   1     0.13   0.12   0.08    -0.38  -0.19  -0.13    -0.07  -0.02  -0.01
    19   1    -0.50   0.10   0.04     0.58  -0.12  -0.04     0.09  -0.02   0.01
    20  17     0.00   0.00   0.00     0.00   0.00   0.00     0.00   0.00   0.00
                     25                     26                     27
                      A                      A                      A
 Frequencies --   1128.6547              1143.2103              1149.3221
 Red. masses --      1.3939                 1.6583                 1.3263
 Frc consts  --      1.0462                 1.2769                 1.0323
 IR Inten    --     25.9155                 2.3133                 0.1284
  Atom  AN      X      Y      Z        X      Y      Z        X      Y      Z
     1   6    -0.02   0.09   0.04    -0.02   0.06   0.02     0.00   0.00   0.00
     2   6     0.05  -0.04  -0.02     0.08  -0.02  -0.01    -0.01   0.00   0.01
     3   6     0.01  -0.01   0.00    -0.10  -0.11  -0.03     0.01   0.01   0.01
     4   7    -0.01  -0.05  -0.03    -0.03   0.05   0.03     0.00  -0.01  -0.01
     5   1    -0.27   0.56   0.12    -0.18   0.35   0.10     0.01  -0.02   0.00
     6   1     0.41   0.07   0.03     0.57   0.14   0.04    -0.06  -0.01  -0.01
     7   1     0.05  -0.02  -0.02    -0.17  -0.09  -0.03     0.03   0.02  -0.02
     8   7    -0.01  -0.01   0.00    -0.02  -0.02  -0.02     0.00   0.03  -0.07
     9   6    -0.09  -0.06   0.01     0.10   0.04  -0.03    -0.02  -0.01   0.01
    10   6     0.06   0.04  -0.01    -0.07  -0.04   0.02     0.02   0.01  -0.01
    11   1    -0.21   0.21   0.15     0.20  -0.19  -0.16    -0.04   0.03   0.04
    12   1     0.26  -0.12  -0.10    -0.21   0.03   0.14     0.04  -0.01  -0.02
    13   1    -0.08  -0.15   0.07     0.07   0.15  -0.10    -0.01  -0.03   0.03
    14   1    -0.04  -0.08   0.20     0.06   0.07  -0.20    -0.02   0.00   0.03
    15   1    -0.16   0.07  -0.27     0.16  -0.10   0.27    -0.04   0.03  -0.06
    16   6     0.01   0.01  -0.01     0.02   0.00   0.02     0.00  -0.04   0.14
    17   1     0.02  -0.02   0.01    -0.12   0.01  -0.03    -0.59   0.22  -0.13
    18   1    -0.04   0.00   0.01     0.09  -0.04  -0.05     0.61  -0.09  -0.22
    19   1     0.03  -0.01   0.02     0.04   0.01  -0.06    -0.02   0.10  -0.32
    20  17     0.00   0.00   0.00     0.00   0.00   0.00     0.00   0.00   0.00
                     28                     29                     30
                      A                      A                      A
 Frequencies --   1173.0740              1269.8897              1299.4589
 Red. masses --      1.7303                 1.4492                 1.5922
 Frc consts  --      1.4029                 1.3769                 1.5840
 IR Inten    --    122.3241                 8.2217                58.3247
  Atom  AN      X      Y      Z        X      Y      Z        X      Y      Z
     1   6     0.00  -0.03  -0.01     0.02   0.02   0.01    -0.01   0.11   0.03
     2   6     0.01  -0.01   0.00     0.04   0.00   0.00    -0.08  -0.02   0.00
     3   6    -0.01   0.04   0.02     0.01   0.07   0.02     0.09   0.02   0.01
     4   7    -0.10   0.10   0.04    -0.04  -0.10  -0.03     0.03  -0.07  -0.02
     5   1     0.14  -0.29  -0.07    -0.12   0.28   0.08     0.33  -0.47  -0.12
     6   1     0.27   0.08   0.02    -0.29  -0.11  -0.03     0.48   0.18   0.05
     7   1     0.78  -0.25  -0.10     0.42  -0.09  -0.03    -0.29   0.17   0.06
     8   7    -0.12  -0.01   0.00    -0.02   0.02   0.01    -0.08  -0.05  -0.02
     9   6     0.05  -0.08  -0.03     0.03   0.08   0.00    -0.02   0.05   0.00
    10   6     0.00   0.03   0.01    -0.05  -0.08  -0.02    -0.02  -0.04  -0.01
    11   1     0.02   0.02   0.06    -0.20   0.20  -0.22    -0.12   0.10  -0.10
    12   1     0.13  -0.08  -0.07     0.20  -0.32   0.34     0.22  -0.21   0.14
    13   1    -0.06  -0.01  -0.08     0.13   0.11   0.06     0.06   0.04   0.04
    14   1     0.06  -0.06   0.08    -0.04   0.10  -0.24    -0.04   0.03  -0.08
    15   1     0.00  -0.05  -0.07     0.08   0.02   0.27     0.04   0.04   0.14
    16   6     0.09   0.00   0.00     0.01  -0.02   0.00     0.04   0.04   0.01
    17   1     0.06   0.00  -0.01     0.04   0.04  -0.01    -0.06  -0.07   0.01
    18   1     0.06  -0.01   0.01     0.04   0.03   0.02    -0.05  -0.06  -0.05
    19   1     0.08   0.00   0.00    -0.05   0.01   0.00     0.14  -0.01  -0.01
    20  17     0.00   0.00   0.00     0.00   0.00   0.00     0.00   0.00   0.00
                     31                     32                     33
                      A                      A                      A
 Frequencies --   1356.8421              1387.7273              1400.7748
 Red. masses --      3.2747                 1.4609                 2.3241
 Frc consts  --      3.5521                 1.6576                 2.6869
 IR Inten    --      4.0247                14.5717                21.8890
  Atom  AN      X      Y      Z        X      Y      Z        X      Y      Z
     1   6    -0.07   0.00   0.00    -0.03   0.00   0.00     0.07   0.08   0.02
     2   6    -0.05  -0.14  -0.05     0.06   0.01   0.00    -0.13  -0.07  -0.02
     3   6     0.07  -0.03  -0.01     0.04   0.05   0.02    -0.01  -0.10  -0.03
     4   7    -0.14   0.16   0.05    -0.05   0.00  -0.02     0.02  -0.10  -0.04
     5   1     0.02  -0.23  -0.07    -0.04  -0.01  -0.01     0.17  -0.05   0.00
     6   1     0.26  -0.06  -0.03    -0.04  -0.03  -0.01     0.18   0.03   0.01
     7   1    -0.12   0.05   0.02    -0.09   0.12   0.03     0.23  -0.20  -0.07
     8   7     0.26   0.10   0.03     0.01  -0.07  -0.02    -0.01   0.19   0.06
     9   6     0.04  -0.06  -0.03     0.09  -0.07   0.07     0.02   0.00   0.05
    10   6    -0.03  -0.02  -0.02    -0.03   0.00   0.05     0.01  -0.02   0.06
    11   1    -0.30   0.35  -0.05    -0.51   0.30  -0.42    -0.09  -0.08  -0.23
    12   1     0.38  -0.41   0.17    -0.19   0.38  -0.27    -0.15   0.33  -0.22
    13   1     0.03   0.00   0.10    -0.04   0.07  -0.17    -0.03   0.07  -0.30
    14   1     0.04  -0.02  -0.06     0.10   0.12  -0.19    -0.04   0.21  -0.18
    15   1     0.10  -0.06   0.12    -0.07  -0.11  -0.14    -0.20   0.04  -0.20
    16   6    -0.13  -0.04  -0.01     0.00   0.03   0.01     0.01  -0.08  -0.03
    17   1     0.08   0.13   0.01    -0.07  -0.09   0.02     0.11   0.28  -0.08
    18   1     0.07   0.12   0.07    -0.06  -0.08  -0.07     0.10   0.20   0.22
    19   1    -0.14  -0.03   0.00     0.03   0.01  -0.01    -0.13  -0.02   0.00
    20  17     0.00   0.00   0.00     0.00   0.00   0.00     0.00   0.00   0.00
                     34                     35                     36
                      A                      A                      A
 Frequencies --   1417.9726              1433.4125              1456.5555
 Red. masses --      1.2922                 2.4280                 1.2234
 Frc consts  --      1.5308                 2.9393                 1.5292
 IR Inten    --     10.7654                 1.3729                28.2480
  Atom  AN      X      Y      Z        X      Y      Z        X      Y      Z
     1   6    -0.01  -0.02  -0.01     0.11  -0.13  -0.04     0.00   0.00   0.00
     2   6     0.02   0.01   0.00    -0.09   0.09   0.03     0.01  -0.01   0.00
     3   6     0.00   0.01   0.00    -0.08  -0.11  -0.04     0.05  -0.02  -0.01
     4   7     0.00   0.04   0.02     0.16   0.13   0.04    -0.02   0.01   0.00
     5   1    -0.03  -0.02   0.00    -0.04   0.21   0.05     0.00   0.00   0.00
     6   1    -0.02   0.00   0.00    -0.03   0.13   0.04    -0.04  -0.03  -0.01
     7   1    -0.05   0.03   0.02    -0.19  -0.09  -0.03    -0.08   0.03   0.01
     8   7     0.01  -0.04  -0.01    -0.08   0.02   0.01    -0.02   0.03   0.01
     9   6    -0.02   0.02  -0.05    -0.03  -0.03   0.02     0.01  -0.01  -0.02
    10   6     0.06  -0.06   0.10    -0.02  -0.02   0.01     0.00   0.01   0.00
    11   1     0.13   0.01   0.19    -0.51   0.32  -0.30    -0.01   0.21   0.21
    12   1     0.09  -0.23   0.17     0.50  -0.21  -0.07    -0.22  -0.06   0.16
    13   1    -0.03   0.06  -0.48     0.00   0.02  -0.01    -0.01  -0.03   0.06
    14   1    -0.17   0.41  -0.34     0.01   0.03  -0.07     0.04   0.01  -0.04
    15   1    -0.37   0.13  -0.33     0.03  -0.05   0.06     0.02  -0.07  -0.04
    16   6    -0.01   0.01   0.00     0.04   0.00   0.00     0.11  -0.02  -0.01
    17   1    -0.01  -0.06   0.02    -0.03   0.01  -0.03    -0.46   0.05  -0.20
    18   1    -0.01  -0.04  -0.05    -0.02  -0.01   0.03    -0.46  -0.07   0.20
    19   1     0.02   0.00   0.00    -0.01   0.02   0.01    -0.47   0.21   0.06
    20  17     0.00   0.00   0.00     0.00   0.00   0.00     0.00   0.00   0.00
                     37                     38                     39
                      A                      A                      A
 Frequencies --   1471.3590              1484.3196              1486.2743
 Red. masses --      1.1050                 1.0807                 1.0380
 Frc consts  --      1.4095                 1.4028                 1.3510
 IR Inten    --     27.8310                26.1947                14.6043
  Atom  AN      X      Y      Z        X      Y      Z        X      Y      Z
     1   6     0.04   0.00   0.00    -0.02   0.01   0.00     0.00   0.00   0.00
     2   6    -0.03   0.02   0.01     0.01  -0.01   0.00     0.00   0.00   0.00
     3   6     0.00  -0.02  -0.01    -0.01   0.01   0.00     0.00   0.00   0.00
     4   7     0.01  -0.01  -0.02     0.00   0.00   0.01     0.00   0.00   0.00
     5   1     0.03   0.03   0.00    -0.01  -0.03   0.00     0.00   0.00   0.00
     6   1     0.02   0.04   0.01    -0.01  -0.02  -0.01     0.00   0.00   0.00
     7   1    -0.02  -0.01   0.00     0.03   0.00   0.00     0.00   0.00  -0.01
     8   7    -0.03   0.01   0.00     0.01   0.00   0.00     0.00   0.00   0.02
     9   6     0.02  -0.01  -0.03    -0.03   0.05   0.03     0.00   0.01   0.00
    10   6    -0.01   0.03   0.01     0.00   0.03   0.01     0.00   0.00   0.00
    11   1    -0.05   0.39   0.33     0.10  -0.32  -0.21     0.01  -0.04  -0.03
    12   1    -0.40  -0.07   0.27     0.32  -0.01  -0.10     0.04   0.00  -0.02
    13   1    -0.11  -0.17   0.21    -0.24  -0.34   0.23    -0.02  -0.03   0.02
    14   1     0.17   0.10  -0.21     0.04   0.24  -0.29     0.00   0.02  -0.02
    15   1     0.11  -0.35  -0.20     0.18  -0.48  -0.23     0.02  -0.04  -0.02
    16   6    -0.04   0.00   0.00     0.01   0.00   0.00     0.00  -0.01   0.05
    17   1     0.21   0.03   0.07    -0.11  -0.05  -0.03     0.34   0.36   0.04
    18   1     0.20   0.05  -0.05    -0.04   0.01   0.03    -0.37  -0.32  -0.13
    19   1     0.21  -0.09  -0.04    -0.08   0.02   0.08    -0.01   0.20  -0.67
    20  17     0.00   0.00   0.00     0.00   0.00   0.00     0.00   0.00   0.00
                     40                     41                     42
                      A                      A                      A
 Frequencies --   1500.4281              1513.1783              1592.3310
 Red. masses --      1.0453                 1.1108                 3.5337
 Frc consts  --      1.3866                 1.4985                 5.2789
 IR Inten    --      7.3913                 5.6234                40.6179
  Atom  AN      X      Y      Z        X      Y      Z        X      Y      Z
     1   6     0.00   0.00   0.00    -0.04   0.00   0.00     0.12  -0.02  -0.01
     2   6     0.00   0.00   0.00     0.05   0.01   0.00    -0.21   0.03   0.01
     3   6     0.00   0.00   0.00     0.02   0.00   0.00    -0.20   0.16   0.05
     4   7     0.00   0.00   0.00     0.00   0.01   0.01     0.03  -0.06  -0.02
     5   1     0.00  -0.01  -0.01    -0.03  -0.04  -0.01     0.10   0.14   0.04
     6   1     0.00   0.00   0.00    -0.07  -0.03  -0.01     0.40   0.26   0.08
     7   1     0.01   0.00   0.00    -0.08   0.04   0.01     0.41  -0.05  -0.02
     8   7     0.00   0.00   0.00    -0.03  -0.04  -0.01     0.22  -0.16  -0.05
     9   6    -0.03   0.01   0.00    -0.01   0.00   0.00     0.02   0.01   0.00
    10   6    -0.04  -0.01   0.02     0.00   0.00   0.00     0.00   0.00   0.00
    11   1     0.06  -0.11   0.02    -0.01  -0.01  -0.01     0.01   0.06   0.04
    12   1     0.10  -0.02  -0.04     0.05  -0.02  -0.01    -0.14   0.05   0.03
    13   1     0.37   0.36   0.26     0.01   0.01   0.00    -0.01   0.00  -0.01
    14   1     0.62  -0.19  -0.19     0.01   0.00  -0.01     0.00   0.00   0.00
    15   1    -0.26   0.00  -0.32    -0.01   0.00  -0.01     0.01  -0.01   0.00
    16   6     0.00   0.00   0.00    -0.01  -0.04  -0.01    -0.01   0.02   0.01
    17   1    -0.01  -0.01   0.00    -0.14   0.55  -0.19    -0.36   0.14  -0.14
    18   1    -0.01  -0.01  -0.01    -0.12   0.37   0.47    -0.34   0.05   0.19
    19   1    -0.02   0.01   0.00     0.44  -0.20  -0.05     0.05   0.00   0.01
    20  17     0.00   0.00   0.00     0.00   0.00   0.00     0.00   0.00   0.00
                     43                     44                     45
                      A                      A                      A
 Frequencies --   1601.8726              2887.3245              3023.6851
 Red. masses --      3.7524                 1.1217                 1.0475
 Frc consts  --      5.6730                 5.5095                 5.6427
 IR Inten    --     15.0650               787.1815               107.8139
  Atom  AN      X      Y      Z        X      Y      Z        X      Y      Z
     1   6     0.23  -0.12  -0.04    -0.09  -0.04  -0.01     0.00   0.00   0.00
     2   6    -0.16   0.07   0.03     0.01   0.00   0.00     0.00   0.00   0.00
     3   6     0.25  -0.01  -0.01     0.00   0.00   0.00     0.00   0.00   0.00
     4   7    -0.26   0.00   0.01     0.00   0.00   0.00     0.00   0.00   0.00
     5   1    -0.08   0.56   0.18     0.88   0.45   0.12    -0.04  -0.02   0.00
     6   1     0.07   0.19   0.06     0.00  -0.02  -0.01     0.00   0.00   0.00
     7   1    -0.30   0.22   0.07     0.01   0.00   0.00     0.00   0.00   0.00
     8   7    -0.04  -0.03  -0.01     0.00   0.00   0.00     0.00   0.00   0.00
     9   6     0.02   0.02   0.01     0.00   0.00   0.00     0.02   0.01  -0.03
    10   6     0.01  -0.01   0.00     0.00   0.00   0.00    -0.01  -0.02   0.04
    11   1     0.24  -0.35  -0.09    -0.04  -0.03   0.03    -0.34  -0.26   0.21
    12   1     0.07   0.07  -0.07     0.00   0.01   0.01     0.09   0.18   0.16
    13   1     0.01  -0.02   0.02     0.00   0.00   0.00    -0.25   0.21   0.08
    14   1    -0.02   0.01   0.00     0.00  -0.01  -0.01    -0.15  -0.27  -0.21
    15   1    -0.02   0.02  -0.02     0.01   0.01  -0.01     0.48   0.33  -0.33
    16   6     0.00   0.01   0.00     0.00   0.00   0.00     0.00   0.00   0.00
    17   1     0.02   0.05   0.00     0.00   0.00   0.01     0.00   0.00   0.00
    18   1     0.02   0.05   0.03     0.00   0.00   0.00     0.00   0.00   0.00
    19   1     0.13  -0.04  -0.01     0.00   0.00   0.00     0.00   0.00   0.00
    20  17     0.00   0.00   0.00     0.00   0.00   0.00     0.00   0.00   0.00
                     46                     47                     48
                      A                      A                      A
 Frequencies --   3032.8219              3059.0502              3092.1909
 Red. masses --      1.0533                 1.0322                 1.1021
 Frc consts  --      5.7080                 5.6912                 6.2088
 IR Inten    --     63.1944                19.4430                26.0243
  Atom  AN      X      Y      Z        X      Y      Z        X      Y      Z
     1   6     0.00   0.00   0.00     0.00   0.00   0.00     0.00   0.00   0.00
     2   6     0.00   0.00   0.00     0.00   0.00   0.00     0.00   0.00   0.00
     3   6     0.00   0.00   0.00     0.00   0.00   0.00     0.00   0.00   0.00
     4   7     0.00   0.00   0.00     0.00   0.00   0.00     0.00   0.00   0.00
     5   1     0.04   0.02   0.00    -0.01   0.00   0.00     0.02   0.01   0.00
     6   1     0.00   0.00   0.00     0.00   0.00   0.00     0.00   0.00   0.00
     7   1     0.00   0.00   0.00     0.00   0.00   0.00     0.00   0.00   0.00
     8   7     0.00   0.00   0.00     0.00   0.00   0.00     0.00   0.00   0.00
     9   6    -0.03   0.00   0.05     0.00   0.00   0.00    -0.05  -0.06  -0.02
    10   6     0.00  -0.02   0.02     0.00   0.00   0.00     0.04   0.02   0.00
    11   1     0.47   0.36  -0.29     0.00   0.00   0.00     0.32   0.24  -0.21
    12   1    -0.17  -0.34  -0.32     0.00   0.01   0.01     0.25   0.49   0.45
    13   1    -0.22   0.18   0.08     0.00   0.00   0.00    -0.19   0.18   0.06
    14   1    -0.09  -0.16  -0.13     0.00   0.00   0.00    -0.14  -0.27  -0.22
    15   1     0.30   0.20  -0.21     0.00   0.00   0.00    -0.19  -0.13   0.13
    16   6     0.00   0.00   0.00     0.05  -0.01   0.00     0.00   0.00   0.00
    17   1     0.00   0.00   0.01    -0.18   0.14   0.57     0.00   0.00  -0.01
    18   1     0.00   0.00   0.00    -0.19   0.44  -0.41     0.00   0.00   0.00
    19   1     0.00   0.00   0.00    -0.18  -0.43  -0.12     0.00   0.00   0.00
    20  17     0.00   0.00   0.00     0.00   0.00   0.00     0.00   0.00   0.00
                     49                     50                     51
                      A                      A                      A
 Frequencies --   3104.8655              3125.1455              3130.7621
 Red. masses --      1.1016                 1.1033                 1.1066
 Frc consts  --      6.2569                 6.3487                 6.3906
 IR Inten    --      4.0399                 5.7041                 4.4329
  Atom  AN      X      Y      Z        X      Y      Z        X      Y      Z
     1   6     0.00   0.00   0.00     0.00   0.00   0.00     0.00   0.00   0.00
     2   6     0.00   0.00   0.00     0.00   0.00   0.00     0.00   0.00   0.00
     3   6     0.00   0.00   0.00     0.00   0.00   0.00     0.00   0.00   0.00
     4   7     0.00   0.00   0.00     0.00   0.00   0.00     0.00   0.00   0.00
     5   1     0.01   0.00   0.00     0.01   0.00   0.00     0.00   0.00   0.00
     6   1     0.00   0.00   0.00     0.00   0.00   0.00     0.00   0.00   0.00
     7   1     0.00   0.00   0.00     0.00   0.00   0.00     0.00   0.00   0.00
     8   7     0.00   0.00   0.00     0.00   0.00   0.00     0.00   0.00   0.00
     9   6    -0.03  -0.03  -0.01    -0.01  -0.02  -0.01     0.00   0.00   0.00
    10   6    -0.08   0.01   0.03    -0.01  -0.08  -0.04     0.00   0.00   0.00
    11   1     0.20   0.15  -0.13     0.08   0.07  -0.06     0.00   0.00   0.00
    12   1     0.12   0.23   0.21     0.09   0.18   0.17     0.00   0.00   0.00
    13   1     0.53  -0.48  -0.17    -0.33   0.27   0.10     0.00   0.00   0.00
    14   1     0.03   0.08   0.07     0.32   0.58   0.47     0.00   0.00   0.00
    15   1     0.35   0.25  -0.25     0.16   0.10  -0.12     0.00   0.00   0.00
    16   6     0.00   0.00   0.00     0.00   0.00   0.00     0.00  -0.03   0.09
    17   1     0.00   0.00   0.00     0.00   0.00   0.00     0.21  -0.18  -0.65
    18   1     0.00   0.00   0.00     0.00   0.00   0.00    -0.21   0.50  -0.45
    19   1     0.00   0.00   0.00     0.00   0.00   0.00     0.01   0.03   0.03
    20  17     0.00   0.00   0.00     0.00   0.00   0.00     0.00   0.00   0.00
                     52                     53                     54
                      A                      A                      A
 Frequencies --   3151.1444              3279.1917              3283.2822
 Red. masses --      1.1050                 1.0983                 1.1030
 Frc consts  --      6.4646                 6.9585                 7.0055
 IR Inten    --      3.9840                14.4843                 0.7905
  Atom  AN      X      Y      Z        X      Y      Z        X      Y      Z
     1   6     0.00   0.00   0.00     0.00   0.00   0.00    -0.01   0.00   0.00
     2   6     0.00   0.00   0.00     0.02  -0.05  -0.02     0.03  -0.07  -0.02
     3   6     0.00   0.00   0.00    -0.03  -0.06  -0.02     0.02   0.05   0.02
     4   7     0.00   0.00   0.00     0.00   0.00   0.00     0.00   0.00   0.00
     5   1     0.00   0.00   0.00     0.00   0.00   0.00     0.01   0.00   0.00
     6   1     0.00   0.00   0.00    -0.19   0.53   0.17    -0.26   0.72   0.23
     7   1     0.01   0.01   0.00     0.30   0.71   0.23    -0.22  -0.52  -0.17
     8   7     0.00   0.00   0.00     0.00   0.00   0.00     0.00   0.00   0.00
     9   6     0.00   0.00   0.00     0.00   0.00   0.00     0.00   0.00   0.00
    10   6     0.00   0.00   0.00     0.00   0.00   0.00     0.00   0.00   0.00
    11   1     0.00   0.00   0.00     0.00   0.00   0.00     0.00   0.00   0.00
    12   1     0.00   0.00   0.00     0.00   0.01   0.00     0.00   0.00   0.00
    13   1     0.00   0.00   0.00     0.00   0.00   0.00     0.00   0.00   0.00
    14   1     0.00   0.00   0.00     0.00   0.00   0.00     0.00   0.00   0.00
    15   1     0.00   0.00   0.00     0.00   0.00   0.00     0.00   0.00   0.00
    16   6     0.01   0.09   0.03     0.00   0.00   0.00     0.00   0.00   0.00
[...]
 .00851078,0.02748270,0.02177522,-0.08792650,0.01471153,0.01270245,-0.1
 8043742,-0.07400296,0.00144230,-0.15595898,0.09599947,0.02265923,-0.08
 914575,0.01367835,0.01212362,0.00359454,0.00460321,0.00023035,0.007260
 69,0.00590322,-0.00031051,0.01157588,-0.01456193,-0.00334897,0.7820010
 4,-0.04246519,0.02059292,0.00433587,-0.05748812,-0.19799308,-0.0126764
 3,0.09730467,-0.31445388,-0.04566586,0.04995703,-0.03181530,-0.0137348
 9,0.00328711,-0.00140585,-0.00113126,-0.02872384,-0.01486803,0.0011367
 3,0.01657245,-0.01601047,-0.00385487,-0.07226894,0.66684200,0.00413106
 ,-0.00093900,0.01239486,0.00276493,-0.01218700,-0.06215308,0.02237296,
 -0.04531167,-0.07097287,0.01862897,-0.00781335,0.01106446,0.00096359,-
 0.00132354,0.00532557,-0.00503543,-0.00210454,-0.00368985,0.00106476,-
 0.00059900,-0.00124174,-0.07136214,0.08229431,0.15906410,0.01479020,0.
 00516943,-0.00016815,0.00028589,-0.00636098,-0.00007480,-0.02409707,0.
 02084456,0.00664859,-0.12959484,0.02367582,0.01180690,0.00168543,-0.00
 076533,-0.00051692,0.00136050,-0.00022759,-0.00005646,0.00165576,0.000
 16076,-0.00005188,-0.00249189,-0.00082762,-0.00112689,0.52051123,0.020
 04976,-0.02179014,-0.00597986,-0.00274975,-0.00371045,-0.00022083,0.00
 938345,0.01217606,0.00066274,0.02925796,-0.13787905,-0.01425729,-0.002
 69946,0.00112377,0.00094561,0.00053234,0.00005602,0.00002422,-0.001856
 75,0.00051474,0.00134130,-0.00901751,0.00299306,-0.00013739,0.11937625
 ,0.52353442,0.00251617,-0.00465063,-0.00301926,-0.00166808,-0.00191483
 ,0.00291486,0.00597688,-0.00215870,-0.00520108,0.01323125,-0.01750504,
 -0.06672625,-0.00058775,0.00049394,-0.00147653,0.00032540,-0.00022706,
 0.00102932,-0.00105218,0.00070314,-0.00192004,-0.00048150,0.00278125,0
 .00437153,-0.01659677,0.01575245,0.51577986,-0.00001531,-0.00178933,-0
 .00125881,-0.00062616,0.00032244,0.00033820,0.00166281,0.00195987,-0.0
 0222412,-0.02260387,0.01912975,-0.01999035,-0.00047766,0.00001760,0.00
 021962,-0.00005575,-0.00000810,0.00008528,-0.00019625,0.00000056,-0.00
 041333,-0.00049709,0.00049982,0.00125660,-0.08951141,0.00261090,-0.035
 34553,0.55106026,0.00115545,0.00070159,0.00109767,0.00049807,0.0004408
 2,-0.00068968,-0.00345467,-0.00059772,0.00193334,0.02223996,-0.0163814
 2,0.02262501,0.00039249,-0.00016044,0.00019786,0.00002507,0.00000040,-
 0.00022439,0.00018264,-0.00000576,-0.00019912,0.00140083,-0.00173039,-
 0.00055684,0.00484646,-0.08204602,0.02079059,0.01552260,0.56657779,0.0
 0027194,0.00039968,0.00056029,0.00118450,0.00022585,-0.00025889,-0.000
 79353,-0.00056716,0.00078386,0.00045344,0.00353123,0.00951153,0.000630
 65,0.00001158,0.00002727,0.00005209,0.00000081,-0.00010551,0.00008205,
 -0.00013449,0.00027813,0.00143479,-0.00277073,-0.00109022,-0.04155635,
 0.02610935,-0.17408767,-0.04161796,0.02580206,0.49630484,0.00034310,-0
 .00093338,-0.00023779,-0.00028559,-0.00044607,-0.00027160,-0.00014655,
 0.00281741,0.00158918,-0.02565007,-0.00214908,0.01328775,0.00213011,0.
 00021544,-0.00014160,0.00010500,0.00001791,-0.00004867,-0.00008037,-0.
 00003385,0.00007546,-0.00067632,-0.00066166,0.00000881,-0.16997986,-0.
 06715779,0.10895624,0.01254860,0.00511225,-0.00924379,0.19031669,-0.00
 021137,0.00146357,-0.00015762,0.00062770,0.00027133,-0.00009618,-0.001
 08161,-0.00308397,-0.00187461,0.02859153,0.00858987,-0.01815780,0.0024
 3934,-0.00069506,-0.00095708,0.00000717,-0.00001290,0.00008024,0.00010
 979,-0.00001571,-0.00014224,0.00256380,-0.00217918,0.00019865,-0.07929
 860,-0.09480053,0.06685273,-0.00548091,-0.00298946,0.00707424,0.065436
 12,0.10010227,0.00022129,0.00042057,0.00062917,0.00026743,0.00016655,-
 0.00006263,-0.00089382,-0.00018750,-0.00010402,0.00478782,-0.00030352,
 -0.00186939,0.00005871,-0.00035827,0.00003219,-0.00003295,0.00001436,0
 .00000929,0.00021949,-0.00003597,0.00008222,-0.00015168,-0.00021953,-0
 .00017804,0.10829551,0.05891095,-0.14218384,0.01771836,0.01269839,-0.0
 2042431,-0.11603391,-0.06771698,0.15553126,-0.00308351,0.00049620,0.00
 125718,-0.00038991,0.00147696,-0.00005400,0.00187289,0.00069524,0.0000
 7510,0.00729984,0.02839832,0.01304008,-0.00088831,0.00012710,0.0002418
 8,-0.00034715,0.00012594,-0.00017638,0.00000981,-0.00003870,-0.0001482
 8,0.00041660,0.00069227,0.00046867,-0.11235325,-0.10248807,-0.05772763
 ,-0.00638799,-0.01006140,-0.00501334,-0.00599896,-0.01428004,-0.013286
 76,0.11997824,0.00358447,0.00089569,-0.00135425,0.00002661,-0.00117951
 ,-0.00001464,-0.00210382,0.00078492,0.00039084,-0.00835137,-0.02802642
 ,-0.01055019,0.00013977,0.00025414,-0.00002022,0.00040795,-0.00002244,
 0.00004595,0.00063154,0.00026327,-0.00045624,0.00048726,-0.00057444,0.
 00014368,-0.08978295,-0.19233931,-0.08810446,0.00513033,0.01013135,0.0
 0539465,-0.00400790,-0.00689806,-0.00572305,0.09439899,0.21640929,0.00
 052223,0.00086300,0.00032979,0.00031550,0.00009904,0.00026453,-0.00110
 368,0.00015417,0.00057544,-0.00102272,-0.00516078,-0.00300442,0.000161
 28,-0.00004606,-0.00012739,0.00003819,0.00003172,-0.00005053,0.0004462
 6,-0.00007964,0.00001876,0.00036675,-0.00067343,-0.00026197,-0.0538795
 1,-0.08936151,-0.10237203,-0.01519837,-0.02127355,-0.01310656,0.004903
 29,0.01316564,0.01150664,0.06409461,0.09889575,0.10816733,-0.00016518,
 -0.00060063,-0.00028941,-0.00040388,0.00006299,0.00018009,0.00103579,0
 .00006013,-0.00035492,-0.00116544,0.00119999,-0.00292867,-0.00014673,0
 .00004707,-0.00008339,-0.00000911,-0.00001242,0.00005777,-0.00000872,0
 .00004855,0.00006037,-0.00016357,0.00054589,0.00018655,-0.00967578,0.0
 0977847,0.00347167,-0.15666740,0.12752204,0.03278253,0.00041291,-0.000
 06844,0.00002688,0.00010691,-0.00048097,0.00033488,0.16858367,-0.00017
 514,0.00048192,0.00008499,0.00003674,0.00008310,-0.00001011,-0.0007192
 9,-0.00009060,0.00027223,0.00107096,0.00060835,0.00156377,0.00031863,0
 .00008611,-0.00016390,0.00000628,0.00000442,0.00001376,0.00002523,-0.0
 0000672,0.00005852,0.00041936,-0.00038471,-0.00018418,0.00441435,-0.00
 734153,-0.00294177,0.12821201,-0.19112792,-0.03604725,-0.00002695,0.00
 008181,0.00001474,0.00008035,0.00048647,0.00024731,-0.14147588,0.20484
 875,-0.00033086,-0.00028712,-0.00025277,-0.00043944,0.00002054,0.00023
 266,0.00091944,0.00039897,-0.00056860,-0.00487900,0.00307559,-0.005174
 03,-0.00030200,0.00002548,-0.00005961,-0.00004333,0.00001158,0.0000418
 5,-0.00006311,-0.00000158,-0.00013569,-0.00071547,0.00103956,0.0004295
 2,-0.01718423,0.02048447,0.00658658,0.03476645,-0.03853211,-0.05718061
 ,0.00065478,-0.00003617,0.00106353,0.00002906,-0.00069164,0.00132324,-
 0.03415190,0.03967307,0.06020100,-0.00030156,0.00038269,0.00002256,-0.
 00016946,0.00009336,0.00009322,-0.00046931,0.00001082,0.00007911,0.000
 77534,-0.00135644,0.00048287,0.00065511,0.00016427,-0.00031793,0.00001
 310,0.00000796,-0.00001560,0.00006585,-0.00001959,0.00003078,0.0002454
 4,-0.00007801,-0.00010500,-0.00864017,-0.00944242,-0.00847184,-0.11772
 220,-0.10597836,-0.05276660,0.00037271,0.00026923,0.00086209,-0.000086
 13,0.00094251,-0.00186003,0.01191947,0.01684130,0.00914623,0.12481104,
 0.00008668,0.00007181,0.00004762,-0.00002349,-0.00012139,-0.00000169,0
 .00009761,-0.00014036,-0.00016158,-0.00032695,0.00145487,-0.00018290,0
 .00050999,-0.00025471,0.00020221,-0.00000422,0.00000507,0.00002024,-0.
 00002518,-0.00001815,0.00002002,-0.00017886,0.00013124,0.00001910,0.00
 651910,0.00839466,0.00483902,-0.10626491,-0.20679240,-0.08222774,-0.00
 018869,0.00045239,-0.00042692,0.00136666,0.00004096,0.00276243,-0.0122
 3977,-0.01743430,-0.00878150,0.11292985,0.22039538,-0.00017343,-0.0001
 2635,0.00000009,-0.00029174,0.00027588,0.00008419,0.00010430,0.0000727
 6,0.00016336,0.00100282,-0.00039361,0.00105715,-0.00075229,0.00022598,
 -0.00000038,-0.00002202,-0.00000122,0.00000010,0.00005610,0.00003407,-
 0.00011417,0.00027648,0.00022943,0.00007311,-0.01560569,-0.02360727,-0
 .01547188,-0.05121295,-0.07705398,-0.08634534,-0.00024133,-0.00094420,
 0.00103953,-0.00267542,0.00253593,-0.00433169,-0.00256483,-0.00416190,
 -0.00272423,0.06144797,0.08632960,0.09621969,0.00002719,0.00025700,0.0
 0024824,0.00021520,-0.00003256,-0.00001711,-0.00015219,-0.00041365,0.0
 0028176,0.00266471,-0.00112015,-0.00018822,-0.00033310,0.00002578,0.00
 002874,0.00000577,-0.00000397,0.00000280,-0.00002994,0.00000709,-0.000
 04942,0.00014356,-0.00017329,-0.00012122,0.00952746,0.00716556,-0.0123
 3551,-0.17036269,-0.05881120,0.11454962,-0.00103917,0.00106400,-0.0027
 9835,0.00073774,-0.00021060,0.00111588,-0.01368105,-0.00829591,0.01240
 454,-0.01043655,-0.00216848,0.01065541,0.18254405,-0.00000002,-0.00030
 056,-0.00010955,0.00002968,0.00006540,0.00002961,0.00046006,0.00017159
 ,-0.00001466,-0.00174522,0.00082450,-0.00028390,-0.00041302,0.00009904
 ,0.00005054,0.00000421,-0.00001438,0.00002402,0.00001606,0.00005124,0.
 00013947,0.00011908,-0.00017443,-0.00000567,-0.00514967,-0.00489161,0.
 00634090,-0.05867868,-0.07576694,0.05274564,0.00076043,0.00041377,0.00
 172556,0.00065414,0.00032387,-0.00036139,0.01550104,0.00931056,-0.0162
 7474,-0.01494681,-0.00554332,0.01749157,0.06340680,0.07602446,-0.00000
 680,0.00007993,0.00014174,-0.00015069,-0.00015940,-0.00008746,-0.00007
 644,0.00008129,0.00031756,0.00099270,-0.00168174,0.00173631,0.00010341
 ,-0.00006213,-0.00005276,-0.00002906,0.00001312,-0.00002584,-0.0001379
 0,0.00004297,-0.00023098,-0.00046536,0.00051779,0.00006345,0.02118928,
 0.01028773,-0.02106483,0.11233967,0.05330141,-0.15344692,-0.00421904,0
 .00075361,-0.00369340,-0.00005014,-0.00055271,0.00080448,0.00324914,0.
 00143866,-0.00395960,-0.00857571,-0.00231794,0.00948076,-0.12437561,-0
 .06198785,0.16955452,0.00117624,-0.00486796,-0.00061655,-0.02366024,-0
 .00008792,0.00192986,-0.01714564,0.01045918,0.00253789,0.00606020,0.00
 121816,-0.00013793,-0.00059218,0.00014825,0.00017078,0.00191596,0.0008
 9027,-0.00011750,0.00200427,-0.00141005,-0.00066636,-0.21650158,0.0199
 0761,0.01682153,-0.00001573,0.00112111,0.00065236,0.00018158,-0.000363
 51,-0.00049597,-0.00016017,-0.00046481,0.00004782,0.00008072,-0.000123
 70,-0.00004750,0.00013360,-0.00016580,0.00018718,-0.00010825,0.0000310
 7,-0.00001277,-0.00004210,0.00003384,0.00006184,0.47537271,-0.00592979
 ,-0.00674872,-0.00067933,-0.02155523,0.01458469,0.00449862,0.02654297,
 0.00551568,-0.00067933,0.00558259,-0.00480046,-0.00174691,0.00090713,0
 .00124320,-0.00023010,0.00019448,0.00032267,0.00014340,0.00041344,0.00
 028184,0.00031423,0.01693030,-0.11241992,-0.00919880,0.00042430,0.0013
 4320,-0.00040722,0.00003231,-0.00010242,-0.00007551,0.00016833,-0.0004
 9797,-0.00001062,-0.00003801,0.00000681,-0.00002852,0.00001733,-0.0000
 0694,0.00005773,-0.00000499,-0.00002579,0.00004415,0.00000223,0.000017
 42,0.00004472,0.02342891,0.60995113,-0.00070395,-0.00051590,0.00183185
 ,-0.00076422,0.00250346,-0.00231255,0.00517084,0.00050720,-0.00697959,
 0.00079296,-0.00171748,0.00394417,0.00037899,0.00001305,0.00120352,-0.
 00023858,0.00002790,-0.00057927,-0.00039470,0.00054045,-0.00242134,0.0
 1608250,-0.00929322,-0.06230245,-0.00017715,-0.00022379,0.00302187,0.0
 0056056,-0.00049778,-0.00029085,-0.00018913,0.00055394,0.00003193,-0.0
 0016259,0.00008464,0.00000285,0.00002875,-0.00005773,0.00018563,-0.000
 02335,0.00000840,-0.00002180,-0.00002026,-0.00000026,-0.00004244,0.012
 37594,0.00254693,0.57727927,-0.00048074,0.00170761,0.00014342,0.002587
 41,0.00101744,0.00010264,-0.00024657,-0.00446769,0.00216892,-0.0032599
 6,0.00027065,-0.00013324,0.00003367,-0.00001116,-0.00022981,-0.0000981
 5,-0.00041256,0.00022224,-0.00004990,0.00013855,0.00011406,-0.01833909
 ,0.02194603,0.03242238,0.00004071,-0.00045332,-0.00079575,-0.00018082,
 0.00022834,0.00021687,0.00003654,0.00006809,-0.00000650,0.00000798,0.0
 0001955,0.00001756,-0.00003863,0.00005150,-0.00011348,0.00001968,-0.00
 001796,0.00001112,0.00002485,0.00000976,-0.00001557,-0.05264271,0.0123
 9278,0.03030250,0.06627502,0.00043009,-0.00020419,0.00010094,-0.000836
 28,0.00052025,0.00037902,0.00102529,0.00035287,-0.00079753,-0.00005300
 ,-0.00005782,0.00063480,-0.00013844,0.00001471,-0.00005822,-0.00006219
 ,0.00004206,-0.00011132,-0.00011020,0.00018261,-0.00038056,0.00349643,
 -0.00312126,-0.00384453,-0.00003584,0.00009415,-0.00001086,0.00003909,
 0.00001300,-0.00004069,0.00001543,-0.00000522,0.00001078,0.00000103,-0
 .00000340,-0.00000394,-0.00000134,-0.00000711,0.00001563,0.00000196,0.
 00000464,-0.00000151,-0.00001514,-0.00001431,0.00000861,0.01692814,-0.
 09643688,-0.09946489,-0.02219836,0.09869541,0.00050146,-0.00046233,-0.
 00002322,-0.00053031,-0.00053892,0.00055198,-0.00110686,0.00139478,0.0
 0006551,0.00033104,0.00073659,-0.00007736,-0.00005943,-0.00000853,-0.0
 0001710,0.00023493,0.00022531,-0.00024214,-0.00000959,0.00002850,-0.00
 000896,0.00373381,-0.00082047,0.00295432,-0.00001002,0.00006948,-0.000
 00494,-0.00000864,-0.00001198,-0.00002809,-0.00001156,-0.00002745,-0.0
 0000061,0.00000382,0.00000289,-0.00000659,0.00000258,-0.00000778,0.000
 00626,-0.00000703,0.00000200,0.00000032,0.00000195,0.00000307,0.000004
 16,0.03727950,-0.10127421,-0.26629248,-0.04199099,0.11052212,0.2817233
 4,-0.00061235,0.00178988,0.00059495,0.00260120,0.00125822,-0.00034228,
 -0.00016194,-0.00386568,-0.00338788,-0.00307586,-0.00019104,0.00079194
 ,0.00012984,-0.00005221,0.00019264,-0.00019060,-0.00034595,-0.00034499
 ,-0.00006421,0.00015059,-0.00006404,-0.02415072,0.02706909,-0.02134581
 ,-0.00007474,-0.00060672,0.00054908,0.00006552,0.00002651,0.00006959,-
 0.00004113,0.00032011,-0.00000949,-0.00004009,0.00005204,0.00003092,-0
 .00002458,0.00002380,-0.00002262,0.00001617,-0.00000101,-0.00000440,0.
 00000286,-0.00000438,-0.00003502,-0.07104341,0.04418255,-0.05709352,0.
 00274106,-0.00382958,0.00267068,0.08756113,0.00053258,-0.00031060,-0.0
 0019193,-0.00101123,0.00042406,-0.00023558,0.00081631,0.00037494,0.000
 69790,-0.00016425,0.00039553,-0.00049164,-0.00012163,-0.00001246,0.000
 09135,0.00001236,0.00002524,0.00014780,-0.00001735,0.00005312,0.000437
 64,0.00441092,-0.00289238,0.00080853,0.00005674,0.00009416,-0.00002832
 ,-0.00000830,-0.00000996,0.00000057,0.00000994,-0.00003648,0.00001738,
 -0.00000835,-0.00001678,0.00002665,0.00000489,-0.00000225,-0.00000017,
 -0.00000597,0.00000495,-0.00000723,0.00000013,0.00000612,-0.00000518,0
 .04935365,-0.14615299,0.11804546,-0.00538544,0.01002116,-0.01060461,-0
 .05777989,0.15286281,-0.00024638,0.00006706,0.00008698,-0.00009018,0.0
 0029891,0.00056071,0.00131233,-0.00053210,0.00031359,0.00017362,-0.000
 58298,-0.00056248,-0.00000141,0.00002349,-0.00004555,-0.00023504,-0.00
 007452,-0.00016632,0.00001471,-0.00003996,0.00009765,0.00225511,-0.006
 08456,0.00852536,-0.00000745,0.00006692,-0.00017390,-0.00001420,0.0000
 2687,0.00001161,0.00004386,-0.00002877,0.00000263,0.00000894,-0.000014
 64,0.00000230,-0.00000166,0.00000600,-0.00000453,0.00000432,-0.0000009
 9,0.00000118,-0.00000215,-0.00000385,0.00000348,-0.06264419,0.12065483
 ,-0.19772727,-0.00803445,0.01816894,-0.01935578,0.06543732,-0.12929061
 ,0.20582679,-0.00197775,-0.00118885,0.00007336,-0.00215208,0.00514229,
 0.00110655,0.00189366,-0.00175654,-0.00038455,-0.00033427,-0.00037996,
 -0.00001787,0.00032164,0.00044752,-0.00004454,0.00001810,-0.00008712,-
 0.00004026,-0.00018749,0.00072422,0.00017360,-0.02558467,-0.03483676,-
 0.00192269,0.00008318,-0.00001724,-0.00007701,-0.00002086,0.00001945,0
 .00002846,-0.00000819,-0.00003078,-0.00000299,-0.00001886,0.00004806,0
 .00002338,-0.00000556,0.00001034,-0.00000941,0.00000757,-0.00000990,0.
 00001731,0.00000816,0.00000970,-0.00001722,-0.10585794,-0.10288524,-0.
 00566881,0.00365135,0.00524733,-0.00108407,0.00648724,0.00921173,0.002
 03867,0.12395900,0.00080352,0.00039644,-0.00011753,0.00144229,-0.00015
 762,-0.00025044,0.00128023,0.00098222,-0.00009563,-0.00042699,0.000284
 95,0.00009519,-0.00001427,-0.00002541,0.00002947,0.00019045,0.00018445
 ,0.00004542,-0.00012493,0.00031833,0.00002958,0.00575214,0.00818663,0.
 00062603,0.00002559,-0.00008905,0.00002048,-0.00000983,0.00000502,0.00
 001286,-0.00000376,0.00002120,-0.00000704,-0.00000186,0.00000557,-0.00
 000529,-0.00000415,0.00000371,-0.00000534,0.00000312,-0.00000108,-0.00
 000180,0.00000358,-0.00000075,-0.00000145,-0.11625239,-0.26629554,-0.0
 1306813,-0.00482890,-0.01006447,0.00074652,-0.00809818,-0.01481414,-0.
 00264326,0.12027083,0.28106985,0.00031320,0.00005518,0.00054341,0.0003
 7560,-0.00061468,0.00059968,0.00004323,0.00027942,0.00063026,-0.000033
 43,0.00011451,-0.00028532,-0.00003980,-0.00003287,-0.00006822,0.000004
 11,0.00007701,-0.00026831,0.00005463,-0.00009487,0.00036581,0.00283945
 ,0.00435305,-0.00195694,0.00004262,0.00001693,-0.00008229,-0.00004266,
 -0.00001124,0.00002931,0.00000277,-0.00001104,0.00000232,-0.00000338,-
 0.00002196,0.00000811,0.00000171,0.00000317,-0.00001094,-0.00000452,0.
 00000381,-0.00000783,0.00000806,0.00001043,-0.00000981,-0.00720094,-0.
 01421702,-0.04841328,-0.01442038,-0.02512380,0.00075299,0.01230530,0.0
 2061949,0.00259906,0.00572696,0.01459497,0.04559004,-0.01766196,0.0038
 8828,0.00526902,-0.00120159,-0.00270984,-0.00030742,-0.00133341,-0.001
 08766,-0.00011729,0.00099662,0.00062734,0.00024260,0.00172956,0.000780
 03,-0.00030356,-0.00018094,-0.00004549,0.00010817,-0.00022009,0.000081
 06,0.00002558,-0.00336416,-0.00025855,-0.00007162,-0.00350562,-0.00278
 678,-0.00053951,-0.00019330,-0.00050301,-0.00026900,-0.00219928,-0.000
 58032,0.00071105,-0.00091659,-0.00080776,0.00074109,-0.00003673,-0.000
 65188,0.00014718,-0.00096783,-0.00009152,-0.00001466,0.00017524,-0.000
 06701,0.00021852,0.00084467,-0.00080638,-0.00025677,-0.00008172,0.0000
 9558,0.00005873,-0.00012540,0.00009316,-0.00001177,-0.00028225,-0.0000
 0648,0.00002749,0.02852479,0.00347438,0.00210153,-0.00133730,-0.000436
 05,0.00057585,0.00018194,0.00227903,0.00083977,0.00000716,0.00049792,-
 0.00106877,0.00028834,-0.00518128,-0.00369039,0.00101330,-0.00019105,-
 0.00003403,0.00002562,0.00031101,-0.00001615,0.00009603,-0.00044568,0.
 00127747,0.00011520,-0.00306476,-0.00543655,-0.00062559,-0.00123723,-0
 .00015911,0.00055506,0.00105588,-0.00018166,0.00101012,-0.00159676,-0.
 00054198,0.00074841,0.00009521,0.00040687,-0.00019222,0.00018553,-0.00
 062446,-0.00094031,-0.00068719,-0.00060166,0.00019858,0.00021595,0.000
 22100,0.00000775,-0.00007491,-0.00002621,0.00002501,-0.00009816,-0.000
 01404,-0.00001676,0.00006093,-0.00001031,-0.00000048,0.00483724,0.0069
 8285,0.00581871,-0.00137507,0.00235854,0.00023231,0.00091177,0.0001693
 1,0.00045984,0.00049474,-0.00016354,0.00013261,-0.00086229,0.00012084,
 -0.00260760,-0.00013399,-0.00319985,0.00001286,-0.00001894,-0.00001129
 ,0.00009048,0.00000816,-0.00011541,0.00068879,0.00023728,-0.00041912,-
 0.00097063,-0.00088420,0.00008054,0.00004218,0.00057748,-0.00114187,0.
 00111627,0.00147109,-0.00141447,0.00007858,0.00000967,0.00025771,-0.00
 000814,0.00019840,0.00000033,-0.00002153,-0.00015319,0.00089785,0.0006
 1083,0.00048106,0.00050759,-0.00012497,0.00024296,-0.00011776,0.000018
 48,-0.00000296,-0.00000160,0.00000765,-0.00003750,0.00000449,0.0000811
 2,-0.00000461,-0.00001804,-0.00565782,-0.00115986,0.00220575\\0.000058
 74,-0.00006067,-0.00004391,0.00002762,0.00001258,0.00001133,0.00006017
 ,0.00002585,-0.00000339,0.00000246,0.00000300,0.00001895,-0.00011999,0
 .00005372,0.00003233,-0.00001149,-0.00000047,0.00000468,-0.00000355,0.
 00000300,0.00000300,-0.00006397,0.00000237,-0.00000953,0.00001548,-0.0
 0002139,0.00002448,0.00000534,0.00002402,-0.00004470,-0.00001340,-0.00
 000207,-0.00000420,-0.00001175,-0.00001067,0.00000198,-0.00000181,-0.0
 0000466,0.00000050,-0.00000858,-0.00001225,0.00001090,-0.00000385,-0.0
 0000347,0.00000974,0.00001347,0.00000302,0.00000019,-0.00000266,-0.000
 00096,0.00000061,-0.00000059,-0.00000089,-0.00000045,-0.00000267,-0.00
 000127,0.00000096,0.00006102,-0.00000879,-0.00001348\\\@


 THAT'S WHAT MAKES US A GREAT COUNTRY.
 THE LITTLE THINGS ARE SERIOUS AND THE BIG ONES ARE NOT.
           WILL ROGERS
 Job cpu time:       0 days  1 hours 17 minutes 10.2 seconds.
 File lengths (MBytes):  RWF=    151 Int=      0 D2E=      0 Chk=      7 Scr=      1
 Normal termination of Gaussian 09 at Sun Apr 19 20:08:56 2015.
