 Entering Gaussian System, Link 0=g09
 Input=/work/cjs14/CJS1_emim-cl_FE_6-311+g-d-p-_gd3bj_pop-nbo-full-_unfrz.com
 Output=/work/cjs14/CJS1_emim-cl_FE_6-311+g-d-p-_gd3bj_pop-nbo-full-_unfrz.log
 Initial command:
 /apps/gaussian/g09_d01/g09/l1.exe /tmp/pbs.9416799.cx1b/Gau-3046.inp -scrdir=/tmp/pbs.9416799.cx1b/
 Entering Link 1 = /apps/gaussian/g09_d01/g09/l1.exe PID=      3047.
  
 Copyright (c) 1988,1990,1992,1993,1995,1998,2003,2009,2013,
            Gaussian, Inc.  All Rights Reserved.
  
 This is part of the Gaussian(R) 09 program.  It is based on
 the Gaussian(R) 03 system (copyright 2003, Gaussian, Inc.),
 the Gaussian(R) 98 system (copyright 1998, Gaussian, Inc.),
 the Gaussian(R) 94 system (copyright 1995, Gaussian, Inc.),
 the Gaussian 92(TM) system (copyright 1992, Gaussian, Inc.),
 the Gaussian 90(TM) system (copyright 1990, Gaussian, Inc.),
 the Gaussian 88(TM) system (copyright 1988, Gaussian, Inc.),
 the Gaussian 86(TM) system (copyright 1986, Carnegie Mellon
 University), and the Gaussian 82(TM) system (copyright 1983,
 Carnegie Mellon University). Gaussian is a federally registered
 trademark of Gaussian, Inc.
  
 This software contains proprietary and confidential information,
 including trade secrets, belonging to Gaussian, Inc.
  
 This software is provided under written license and may be
 used, copied, transmitted, or stored only in accord with that
 written license.
  
 The following legend is applicable only to US Government
 contracts under FAR:
  
                    RESTRICTED RIGHTS LEGEND
  
 Use, reproduction and disclosure by the US Government is
 subject to restrictions as set forth in subparagraphs (a)
 and (c) of the Commercial Computer Software - Restricted
 Rights clause in FAR 52.227-19.
  
 Gaussian, Inc.
 340 Quinnipiac St., Bldg. 40, Wallingford CT 06492
  
  
 ---------------------------------------------------------------
 Warning -- This program may not be used in any manner that
 competes with the business of Gaussian, Inc. or will provide
 assistance to any competitor of Gaussian, Inc.  The licensee
 of this program is prohibited from giving any competitor of
 Gaussian, Inc. access to this program.  By using this program,
 the user acknowledges that Gaussian, Inc. is engaged in the
 business of creating and licensing software in the field of
 computational chemistry and represents and warrants to the
 licensee that it is not a competitor of Gaussian, Inc. and that
 it will not use this program in any manner prohibited above.
 ---------------------------------------------------------------
  

 Cite this work as:
 Gaussian 09, Revision D.01,
 M. J. Frisch, G. W. Trucks, H. B. Schlegel, G. E. Scuseria, 
 M. A. Robb, J. R. Cheeseman, G. Scalmani, V. Barone, B. Mennucci, 
 G. A. Petersson, H. Nakatsuji, M. Caricato, X. Li, H. P. Hratchian, 
 A. F. Izmaylov, J. Bloino, G. Zheng, J. L. Sonnenberg, M. Hada, 
 M. Ehara, K. Toyota, R. Fukuda, J. Hasegawa, M. Ishida, T. Nakajima, 
 Y. Honda, O. Kitao, H. Nakai, T. Vreven, J. A. Montgomery, Jr., 
 J. E. Peralta, F. Ogliaro, M. Bearpark, J. J. Heyd, E. Brothers, 
 K. N. Kudin, V. N. Staroverov, T. Keith, R. Kobayashi, J. Normand, 
 K. Raghavachari, A. Rendell, J. C. Burant, S. S. Iyengar, J. Tomasi, 
 M. Cossi, N. Rega, J. M. Millam, M. Klene, J. E. Knox, J. B. Cross, 
 V. Bakken, C. Adamo, J. Jaramillo, R. Gomperts, R. E. Stratmann, 
 O. Yazyev, A. J. Austin, R. Cammi, C. Pomelli, J. W. Ochterski, 
 R. L. Martin, K. Morokuma, V. G. Zakrzewski, G. A. Voth, 
 P. Salvador, J. J. Dannenberg, S. Dapprich, A. D. Daniels, 
 O. Farkas, J. B. Foresman, J. V. Ortiz, J. Cioslowski, 
 and D. J. Fox, Gaussian, Inc., Wallingford CT, 2013.
 
 ******************************************
 Gaussian 09:  ES64L-G09RevD.01 24-Apr-2013
                20-Apr-2015 
 ******************************************
 %nprocshared=8
 Will use up to    8 processors via shared memory.
 %mem=15000MB
 %chk=CJS1_emim-cl_FE_6-311+g-d-p-_gd3bj_pop-nbo-full-_unfrz.chk
 ----------------------------------------------------------------------
 # pop(nbo,full) GFInput b3lyp/6-311+g(d,p) geom=checkpoint integral=gr
 id=ultrafine scf=conver=9 empiricaldispersion=gd3bj
 ----------------------------------------------------------------------
 1/29=2,38=1/1;
 2/12=2,40=1/2;
 3/5=4,6=6,7=111,11=2,14=-4,16=1,24=10,25=1,30=1,74=-5,75=-5,124=41/1,2,3;
 4//1;
 5/5=2,6=9,38=5/2;
 6/7=3,28=1,40=1/1,7;
 99/5=1,9=1/99;
 ----------------------------------------------------------------------
 Emim+ (optimised with b3lyp+gd3bj / aug-cc-pvtz) and Cl- in the front-
 ethyl position created on; Thu Apr 16 19:11:58 BST 2015, from; CJS1_em
 im-cl_FE_init.com created on; Sun Apr 19 10:11:25 BST 2015, from; CJS1
 _emim-cl_FE_6-311+g-d-p-_gd3bj_opt-modredundant_difrz_err.com created 
 on; Mon Apr 20 15:19:46 BST 2015, from; CJS1_emim-cl_FE_6-311+g-d-p-_g
 d3bj_opt-modredundant_unfrz.com
 ----------------------------------------------------------------------
 Structure from the checkpoint file:  "CJS1_emim-cl_FE_6-311+g-d-p-_gd3bj_pop-nbo-full-_unfrz.chk"
 Charge =  0 Multiplicity = 1
 Redundant internal coordinates found in file.
 C,0,-0.355578329,1.8443306824,-0.1633009732
 C,0,-1.6838649555,1.6931010716,0.0899527787
 C,0,-0.799916843,-0.3305387254,-0.1820100338
 N,0,0.1708819228,0.5760222028,-0.3332895703
 H,0,0.2489602169,2.7310529228,-0.2403962301
 H,0,-2.4561358414,2.4203615494,0.2700997362
 H,0,-0.5989470894,-1.4326327967,-0.2221159117
 N,0,-1.9372637547,0.3291901306,0.0754352255
 C,0,1.5920120551,0.2287720394,-0.5539211709
 C,0,2.3448566518,0.1024219285,0.7636654612
 H,0,2.0079507061,1.0048466848,-1.1989871998
 H,0,1.5963979869,-0.7289292021,-1.0761224186
 H,0,3.3953130215,-0.1127330313,0.5570560239
 H,0,2.2894763359,1.0215767003,1.3535513662
 H,0,1.9396993031,-0.7333421659,1.336590022
 C,0,-3.2301369788,-0.3165013923,0.2972907632
 H,0,-3.6245068199,-0.0264259588,1.2713622023
 H,0,-3.9301161469,-0.0281964075,-0.4875536328
 H,0,-3.079708978,-1.393960777,0.273466525
 Cl,0,0.5035852965,-3.0881820758,-0.220264003
 Recover connectivity data from disk.
                          Input orientation:                          
 ---------------------------------------------------------------------
 Center     Atomic      Atomic             Coordinates (Angstroms)
 Number     Number       Type             X           Y           Z
 ---------------------------------------------------------------------
      1          6           0       -0.355578    1.844331   -0.163301
      2          6           0       -1.683865    1.693101    0.089953
      3          6           0       -0.799917   -0.330539   -0.182010
      4          7           0        0.170882    0.576022   -0.333290
      5          1           0        0.248960    2.731053   -0.240396
      6          1           0       -2.456136    2.420362    0.270100
      7          1           0       -0.598947   -1.432633   -0.222116
      8          7           0       -1.937264    0.329190    0.075435
      9          6           0        1.592012    0.228772   -0.553921
     10          6           0        2.344857    0.102422    0.763665
     11          1           0        2.007951    1.004847   -1.198987
     12          1           0        1.596398   -0.728929   -1.076122
     13          1           0        3.395313   -0.112733    0.557056
     14          1           0        2.289476    1.021577    1.353551
     15          1           0        1.939699   -0.733342    1.336590
     16          6           0       -3.230137   -0.316501    0.297291
     17          1           0       -3.624507   -0.026426    1.271362
     18          1           0       -3.930116   -0.028196   -0.487554
     19          1           0       -3.079709   -1.393961    0.273467
     20         17           0        0.503585   -3.088182   -0.220264
 ---------------------------------------------------------------------
                    Distance matrix (angstroms):
                    1          2          3          4          5
     1  C    0.000000
     2  C    1.360644   0.000000
     3  C    2.219875   2.224960   0.000000
     4  N    1.383713   2.206147   1.336858   0.000000
     5  H    1.075959   2.218623   3.236803   2.158445   0.000000
     6  H    2.220808   1.075994   3.242671   3.266020   2.770321
     7  H    3.286514   3.323349   1.120986   2.153994   4.249183
     8  N    2.203265   1.387326   1.339805   2.161541   3.263169
     9  C    2.560414   3.645573   2.484446   1.479484   2.857183
    10  C    3.344527   4.383463   3.312304   2.480680   3.508650
    11  H    2.713604   3.970461   3.271333   2.075607   2.644377
    12  H    3.356355   4.241001   2.588528   2.070458   3.805983
    13  H    4.291643   5.410848   4.265397   3.415268   4.315389
    14  H    3.158177   4.223158   3.705471   2.744521   3.102690
    15  H    3.763292   4.535631   3.158147   2.762544   4.165035
    16  C    3.625524   2.544101   2.477074   3.572277   4.656266
    17  H    4.030370   2.849314   3.191094   4.164472   4.989274
    18  H    4.048311   2.888256   3.159575   4.148140   5.013903
    19  H    4.254196   3.392935   2.556517   3.849068   5.325395
    20  Cl   5.007104   5.267052   3.050439   3.681013   5.824838
                    6          7          8          9         10
     6  H    0.000000
     7  H    4.305461   0.000000
     8  N    2.163359   2.232409   0.000000
     9  C    4.676492   2.769596   3.586358   0.000000
    10  C    5.354062   3.463255   4.342999   1.522752   0.000000
    11  H    4.908153   3.700203   4.200641   1.091516   2.186294
    12  H    5.305976   2.458468   3.864255   1.090828   2.153173
    13  H    6.382661   4.278242   5.372488   2.145411   1.091988
    14  H    5.064711   4.104736   4.469710   2.180240   1.093562
    15  H    5.514219   3.059951   4.213114   2.149554   1.091282
    16  C    2.844334   2.904943   1.462073   4.926967   5.610130
    17  H    2.890396   3.655394   2.098450   5.532527   5.992300
    18  H    2.956703   3.624857   2.101462   5.528502   6.399835
    19  H    3.864959   2.530075   2.076932   5.014261   5.648484
    20  Cl   6.272516   1.989076   4.209942   3.506877   3.812919
                   11         12         13         14         15
    11  H    0.000000
    12  H    1.786183   0.000000
    13  H    2.501489   2.506604   0.000000
    14  H    2.568071   3.073751   1.773115   0.000000
    15  H    3.074916   2.437018   1.763984   1.789517   0.000000
    16  C    5.605566   5.035057   6.633671   5.776874   5.289717
    17  H    6.236243   5.767325   7.056596   6.006685   5.609311
    18  H    6.069098   5.601767   7.400018   6.570770   6.187040
    19  H    5.814351   4.912192   6.606654   5.985779   5.173114
    20  Cl   4.469217   2.737299   4.221328   4.749360   3.167253
                   16         17         18         19         20
    16  C    0.000000
    17  H    1.090177   0.000000
    18  H    1.090445   1.785269   0.000000
    19  H    1.088170   1.778413   1.779791   0.000000
    20  Cl   4.678756   5.351677   5.393762   3.994265   0.000000
 Stoichiometry    C6H11ClN2
 Framework group  C1[X(C6H11ClN2)]
 Deg. of freedom    54
 Full point group                 C1      NOp   1
 Largest Abelian subgroup         C1      NOp   1
 Largest concise Abelian subgroup C1      NOp   1
                         Standard orientation:                         
 ---------------------------------------------------------------------
 Center     Atomic      Atomic             Coordinates (Angstroms)
 Number     Number       Type             X           Y           Z
 ---------------------------------------------------------------------
      1          6           0       -1.491955    1.547737   -0.217408
      2          6           0       -2.404460    0.567670    0.023748
      3          6           0       -0.402468   -0.385548   -0.160241
      4          7           0       -0.258030    0.932257   -0.332625
      5          1           0       -1.613598    2.611886   -0.319768
      6          1           0       -3.469984    0.613801    0.166197
      7          1           0        0.472384   -1.086424   -0.156234
      8          7           0       -1.702054   -0.628234    0.057151
      9          6           0        1.049881    1.597592   -0.521221
     10          6           0        1.655344    2.021803    0.810032
     11          1           0        0.877990    2.443373   -1.189439
     12          1           0        1.698461    0.867309   -1.006955
     13          1           0        2.596428    2.544081    0.625576
     14          1           0        0.991166    2.690890    1.364170
     15          1           0        1.876962    1.136616    1.408551
     16          6           0       -2.262920   -1.958918    0.285987
     17          1           0       -2.784345   -1.979350    1.243163
     18          1           0       -2.952984   -2.215726   -0.518334
     19          1           0       -1.442921   -2.674018    0.304669
     20         17           0        2.388853   -1.613095   -0.077568
 ---------------------------------------------------------------------
 Rotational constants (GHZ):      1.5109461      0.9668069      0.6238712
 Standard basis: 6-311+G(d,p) (5D, 7F)
 AO basis set in the form of general basis input (Overlap normalization):
      1 0
 S   6 1.00       0.000000000000
      0.4563240000D+04  0.1966650249D-02
      0.6820240000D+03  0.1523060193D-01
      0.1549730000D+03  0.7612690966D-01
      0.4445530000D+02  0.2608010331D+00
      0.1302900000D+02  0.6164620782D+00
      0.1827730000D+01  0.2210060280D+00
 SP   3 1.00       0.000000000000
      0.2096420000D+02  0.1146600807D+00  0.4024869267D-01
      0.4803310000D+01  0.9199996477D+00  0.2375939567D+00
      0.1459330000D+01 -0.3030682134D-02  0.8158538515D+00
 SP   1 1.00       0.000000000000
      0.4834560000D+00  0.1000000000D+01  0.1000000000D+01
 SP   1 1.00       0.000000000000
      0.1455850000D+00  0.1000000000D+01  0.1000000000D+01
 SP   1 1.00       0.000000000000
      0.4380000000D-01  0.1000000000D+01  0.1000000000D+01
 D   1 1.00       0.000000000000
      0.6260000000D+00  0.1000000000D+01
 ****
      2 0
 S   6 1.00       0.000000000000
      0.4563240000D+04  0.1966650249D-02
      0.6820240000D+03  0.1523060193D-01
      0.1549730000D+03  0.7612690966D-01
      0.4445530000D+02  0.2608010331D+00
      0.1302900000D+02  0.6164620782D+00
      0.1827730000D+01  0.2210060280D+00
 SP   3 1.00       0.000000000000
      0.2096420000D+02  0.1146600807D+00  0.4024869267D-01
      0.4803310000D+01  0.9199996477D+00  0.2375939567D+00
      0.1459330000D+01 -0.3030682134D-02  0.8158538515D+00
 SP   1 1.00       0.000000000000
      0.4834560000D+00  0.1000000000D+01  0.1000000000D+01
 SP   1 1.00       0.000000000000
      0.1455850000D+00  0.1000000000D+01  0.1000000000D+01
 SP   1 1.00       0.000000000000
      0.4380000000D-01  0.1000000000D+01  0.1000000000D+01
 D   1 1.00       0.000000000000
      0.6260000000D+00  0.1000000000D+01
 ****
      3 0
 S   6 1.00       0.000000000000
      0.4563240000D+04  0.1966650249D-02
      0.6820240000D+03  0.1523060193D-01
      0.1549730000D+03  0.7612690966D-01
      0.4445530000D+02  0.2608010331D+00
      0.1302900000D+02  0.6164620782D+00
      0.1827730000D+01  0.2210060280D+00
 SP   3 1.00       0.000000000000
      0.2096420000D+02  0.1146600807D+00  0.4024869267D-01
      0.4803310000D+01  0.9199996477D+00  0.2375939567D+00
      0.1459330000D+01 -0.3030682134D-02  0.8158538515D+00
 SP   1 1.00       0.000000000000
      0.4834560000D+00  0.1000000000D+01  0.1000000000D+01
 SP   1 1.00       0.000000000000
      0.1455850000D+00  0.1000000000D+01  0.1000000000D+01
 SP   1 1.00       0.000000000000
      0.4380000000D-01  0.1000000000D+01  0.1000000000D+01
 D   1 1.00       0.000000000000
      0.6260000000D+00  0.1000000000D+01
 ****
      4 0
 S   6 1.00       0.000000000000
      0.6293480000D+04  0.1969788147D-02
      0.9490440000D+03  0.1496128592D-01
      0.2187760000D+03  0.7350053084D-01
      0.6369160000D+02  0.2489367658D+00
      0.1882820000D+02  0.6024594331D+00
      0.2720230000D+01  0.2562017589D+00
 SP   3 1.00       0.000000000000
      0.3063310000D+02  0.1119060795D+00  0.3831191864D-01
      0.7026140000D+01  0.9216666549D+00  0.2374031155D+00
      0.2112050000D+01 -0.2569191826D-02  0.8175923978D+00
 SP   1 1.00       0.000000000000
      0.6840090000D+00  0.1000000000D+01  0.1000000000D+01
 SP   1 1.00       0.000000000000
      0.2008780000D+00  0.1000000000D+01  0.1000000000D+01
 SP   1 1.00       0.000000000000
      0.6390000000D-01  0.1000000000D+01  0.1000000000D+01
 D   1 1.00       0.000000000000
      0.9130000000D+00  0.1000000000D+01
 ****
      5 0
 S   3 1.00       0.000000000000
      0.3386500000D+02  0.2549381454D-01
      0.5094790000D+01  0.1903731086D+00
      0.1158790000D+01  0.8521614860D+00
 S   1 1.00       0.000000000000
      0.3258400000D+00  0.1000000000D+01
 S   1 1.00       0.000000000000
      0.1027410000D+00  0.1000000000D+01
 P   1 1.00       0.000000000000
      0.7500000000D+00  0.1000000000D+01
 ****
      6 0
 S   3 1.00       0.000000000000
      0.3386500000D+02  0.2549381454D-01
      0.5094790000D+01  0.1903731086D+00
      0.1158790000D+01  0.8521614860D+00
 S   1 1.00       0.000000000000
      0.3258400000D+00  0.1000000000D+01
 S   1 1.00       0.000000000000
      0.1027410000D+00  0.1000000000D+01
 P   1 1.00       0.000000000000
      0.7500000000D+00  0.1000000000D+01
 ****
      7 0
 S   3 1.00       0.000000000000
      0.3386500000D+02  0.2549381454D-01
      0.5094790000D+01  0.1903731086D+00
      0.1158790000D+01  0.8521614860D+00
 S   1 1.00       0.000000000000
      0.3258400000D+00  0.1000000000D+01
 S   1 1.00       0.000000000000
      0.1027410000D+00  0.1000000000D+01
 P   1 1.00       0.000000000000
      0.7500000000D+00  0.1000000000D+01
 ****
      8 0
 S   6 1.00       0.000000000000
      0.6293480000D+04  0.1969788147D-02
      0.9490440000D+03  0.1496128592D-01
      0.2187760000D+03  0.7350053084D-01
      0.6369160000D+02  0.2489367658D+00
      0.1882820000D+02  0.6024594331D+00
      0.2720230000D+01  0.2562017589D+00
 SP   3 1.00       0.000000000000
      0.3063310000D+02  0.1119060795D+00  0.3831191864D-01
      0.7026140000D+01  0.9216666549D+00  0.2374031155D+00
      0.2112050000D+01 -0.2569191826D-02  0.8175923978D+00
 SP   1 1.00       0.000000000000
      0.6840090000D+00  0.1000000000D+01  0.1000000000D+01
 SP   1 1.00       0.000000000000
      0.2008780000D+00  0.1000000000D+01  0.1000000000D+01
 SP   1 1.00       0.000000000000
      0.6390000000D-01  0.1000000000D+01  0.1000000000D+01
 D   1 1.00       0.000000000000
      0.9130000000D+00  0.1000000000D+01
 ****
      9 0
 S   6 1.00       0.000000000000
      0.4563240000D+04  0.1966650249D-02
      0.6820240000D+03  0.1523060193D-01
      0.1549730000D+03  0.7612690966D-01
      0.4445530000D+02  0.2608010331D+00
      0.1302900000D+02  0.6164620782D+00
      0.1827730000D+01  0.2210060280D+00
 SP   3 1.00       0.000000000000
      0.2096420000D+02  0.1146600807D+00  0.4024869267D-01
      0.4803310000D+01  0.9199996477D+00  0.2375939567D+00
      0.1459330000D+01 -0.3030682134D-02  0.8158538515D+00
 SP   1 1.00       0.000000000000
      0.4834560000D+00  0.1000000000D+01  0.1000000000D+01
 SP   1 1.00       0.000000000000
      0.1455850000D+00  0.1000000000D+01  0.1000000000D+01
 SP   1 1.00       0.000000000000
      0.4380000000D-01  0.1000000000D+01  0.1000000000D+01
 D   1 1.00       0.000000000000
      0.6260000000D+00  0.1000000000D+01
 ****
     10 0
 S   6 1.00       0.000000000000
      0.4563240000D+04  0.1966650249D-02
      0.6820240000D+03  0.1523060193D-01
      0.1549730000D+03  0.7612690966D-01
      0.4445530000D+02  0.2608010331D+00
      0.1302900000D+02  0.6164620782D+00
      0.1827730000D+01  0.2210060280D+00
 SP   3 1.00       0.000000000000
      0.2096420000D+02  0.1146600807D+00  0.4024869267D-01
      0.4803310000D+01  0.9199996477D+00  0.2375939567D+00
      0.1459330000D+01 -0.3030682134D-02  0.8158538515D+00
 SP   1 1.00       0.000000000000
      0.4834560000D+00  0.1000000000D+01  0.1000000000D+01
 SP   1 1.00       0.000000000000
      0.1455850000D+00  0.1000000000D+01  0.1000000000D+01
 SP   1 1.00       0.000000000000
      0.4380000000D-01  0.1000000000D+01  0.1000000000D+01
 D   1 1.00       0.000000000000
      0.6260000000D+00  0.1000000000D+01
 ****
     11 0
 S   3 1.00       0.000000000000
      0.3386500000D+02  0.2549381454D-01
      0.5094790000D+01  0.1903731086D+00
      0.1158790000D+01  0.8521614860D+00
 S   1 1.00       0.000000000000
      0.3258400000D+00  0.1000000000D+01
 S   1 1.00       0.000000000000
      0.1027410000D+00  0.1000000000D+01
 P   1 1.00       0.000000000000
      0.7500000000D+00  0.1000000000D+01
 ****
     12 0
 S   3 1.00       0.000000000000
      0.3386500000D+02  0.2549381454D-01
      0.5094790000D+01  0.1903731086D+00
      0.1158790000D+01  0.8521614860D+00
 S   1 1.00       0.000000000000
      0.3258400000D+00  0.1000000000D+01
 S   1 1.00       0.000000000000
      0.1027410000D+00  0.1000000000D+01
 P   1 1.00       0.000000000000
      0.7500000000D+00  0.1000000000D+01
 ****
     13 0
 S   3 1.00       0.000000000000
      0.3386500000D+02  0.2549381454D-01
      0.5094790000D+01  0.1903731086D+00
      0.1158790000D+01  0.8521614860D+00
 S   1 1.00       0.000000000000
      0.3258400000D+00  0.1000000000D+01
 S   1 1.00       0.000000000000
      0.1027410000D+00  0.1000000000D+01
 P   1 1.00       0.000000000000
      0.7500000000D+00  0.1000000000D+01
 ****
     14 0
 S   3 1.00       0.000000000000
      0.3386500000D+02  0.2549381454D-01
      0.5094790000D+01  0.1903731086D+00
      0.1158790000D+01  0.8521614860D+00
 S   1 1.00       0.000000000000
      0.3258400000D+00  0.1000000000D+01
 S   1 1.00       0.000000000000
      0.1027410000D+00  0.1000000000D+01
 P   1 1.00       0.000000000000
      0.7500000000D+00  0.1000000000D+01
 ****
     15 0
 S   3 1.00       0.000000000000
      0.3386500000D+02  0.2549381454D-01
      0.5094790000D+01  0.1903731086D+00
      0.1158790000D+01  0.8521614860D+00
 S   1 1.00       0.000000000000
      0.3258400000D+00  0.1000000000D+01
 S   1 1.00       0.000000000000
      0.1027410000D+00  0.1000000000D+01
 P   1 1.00       0.000000000000
      0.7500000000D+00  0.1000000000D+01
 ****
     16 0
 S   6 1.00       0.000000000000
      0.4563240000D+04  0.1966650249D-02
      0.6820240000D+03  0.1523060193D-01
      0.1549730000D+03  0.7612690966D-01
      0.4445530000D+02  0.2608010331D+00
      0.1302900000D+02  0.6164620782D+00
      0.1827730000D+01  0.2210060280D+00
 SP   3 1.00       0.000000000000
      0.2096420000D+02  0.1146600807D+00  0.4024869267D-01
      0.4803310000D+01  0.9199996477D+00  0.2375939567D+00
      0.1459330000D+01 -0.3030682134D-02  0.8158538515D+00
 SP   1 1.00       0.000000000000
      0.4834560000D+00  0.1000000000D+01  0.1000000000D+01
 SP   1 1.00       0.000000000000
      0.1455850000D+00  0.1000000000D+01  0.1000000000D+01
 SP   1 1.00       0.000000000000
      0.4380000000D-01  0.1000000000D+01  0.1000000000D+01
 D   1 1.00       0.000000000000
      0.6260000000D+00  0.1000000000D+01
 ****
     17 0
 S   3 1.00       0.000000000000
      0.3386500000D+02  0.2549381454D-01
      0.5094790000D+01  0.1903731086D+00
      0.1158790000D+01  0.8521614860D+00
 S   1 1.00       0.000000000000
      0.3258400000D+00  0.1000000000D+01
 S   1 1.00       0.000000000000
      0.1027410000D+00  0.1000000000D+01
 P   1 1.00       0.000000000000
      0.7500000000D+00  0.1000000000D+01
 ****
     18 0
 S   3 1.00       0.000000000000
      0.3386500000D+02  0.2549381454D-01
      0.5094790000D+01  0.1903731086D+00
      0.1158790000D+01  0.8521614860D+00
 S   1 1.00       0.000000000000
      0.3258400000D+00  0.1000000000D+01
 S   1 1.00       0.000000000000
      0.1027410000D+00  0.1000000000D+01
 P   1 1.00       0.000000000000
      0.7500000000D+00  0.1000000000D+01
 ****
     19 0
 S   3 1.00       0.000000000000
      0.3386500000D+02  0.2549381454D-01
      0.5094790000D+01  0.1903731086D+00
      0.1158790000D+01  0.8521614860D+00
 S   1 1.00       0.000000000000
      0.3258400000D+00  0.1000000000D+01
 S   1 1.00       0.000000000000
      0.1027410000D+00  0.1000000000D+01
 P   1 1.00       0.000000000000
      0.7500000000D+00  0.1000000000D+01
 ****
     20 0
 S   6 1.00       0.000000000000
      0.1058190000D+06  0.7380002465D-03
      0.1587200000D+05  0.5718001910D-02
      0.3619650000D+04  0.2949500985D-01
      0.1030800000D+04  0.1172860392D+00
      0.3399080000D+03  0.3629491212D+00
      0.1245380000D+03  0.5841491951D+00
 S   3 1.00       0.000000000000
      0.1245380000D+03  0.1341769734D+00
      0.4951350000D+02  0.6242498762D+00
      0.2080560000D+02  0.2917559421D+00
 S   1 1.00       0.000000000000
      0.6583460000D+01  0.1000000000D+01
 S   1 1.00       0.000000000000
      0.2564680000D+01  0.1000000000D+01
 S   1 1.00       0.000000000000
      0.5597630000D+00  0.1000000000D+01
 S   1 1.00       0.000000000000
      0.1832730000D+00  0.1000000000D+01
 SP   1 1.00       0.000000000000
      0.4830000000D-01  0.1000000000D+01  0.1000000000D+01
 P   5 1.00       0.000000000000
      0.5897760000D+03  0.3665569355D-02
      0.1398490000D+03  0.2836791942D-01
      0.4514130000D+02  0.1247566028D+00
      0.1687330000D+02  0.3396546305D+00
      0.2771520000D+01  0.7475859630D+00
 P   2 1.00       0.000000000000
      0.6741100000D+01 -0.1572243813D+01
      0.2771520000D+01  0.9923888817D+00
 P   1 1.00       0.000000000000
      0.1023870000D+01  0.1000000000D+01
 P   1 1.00       0.000000000000
      0.3813680000D+00  0.1000000000D+01
 P   1 1.00       0.000000000000
      0.1094370000D+00  0.1000000000D+01
 D   1 1.00       0.000000000000
      0.7500000000D+00  0.1000000000D+01
 ****

 There are   281 symmetry adapted cartesian basis functions of A   symmetry.
 There are   272 symmetry adapted basis functions of A   symmetry.
   272 basis functions,   429 primitive gaussians,   281 cartesian basis functions
    39 alpha electrons       39 beta electrons
       nuclear repulsion energy       518.2285968777 Hartrees.
 NAtoms=   20 NActive=   20 NUniq=   20 SFac= 1.00D+00 NAtFMM=   60 NAOKFM=F Big=F
 Integral buffers will be    131072 words long.
 Raffenetti 2 integral format.
 Two-electron integral symmetry is turned on.
 Nuclear repulsion after empirical dispersion term =      518.1962480097 Hartrees.
 One-electron integrals computed using PRISM.
 NBasis=   272 RedAO= T EigKep=  1.89D-05  NBF=   272
 NBsUse=   272 1.00D-06 EigRej= -1.00D+00 NBFU=   272
 ExpMin= 4.38D-02 ExpMax= 1.06D+05 ExpMxC= 3.62D+03 IAcc=3 IRadAn=         5 AccDes= 0.00D+00
 Harris functional with IExCor=  402 and IRadAn=       5 diagonalized for initial guess.
 HarFok:  IExCor=  402 AccDes= 0.00D+00 IRadAn=         5 IDoV= 1 UseB2=F ITyADJ=14
 ICtDFT=  3500011 ScaDFX=  1.000000  1.000000  1.000000  1.000000
 FoFCou: FMM=F IPFlag=           0 FMFlag=      100000 FMFlg1=           0
         NFxFlg=           0 DoJE=T BraDBF=F KetDBF=T FulRan=T
         wScrn=  0.000000 ICntrl=     500 IOpCl=  0 I1Cent=   200000004 NGrid=           0
         NMat0=    1 NMatS0=      1 NMatT0=    0 NMatD0=    1 NMtDS0=    0 NMtDT0=    0
 Petite list used in FoFCou.
 Keep R1 ints in memory in canonical form, NReq=700735283.
 Requested convergence on RMS density matrix=1.00D-09 within 128 cycles.
 Requested convergence on MAX density matrix=1.00D-07.
 Requested convergence on             energy=1.00D-07.
 No special actions if energy rises.
 SCF Done:  E(RB3LYP) =  -805.117174936     A.U. after   15 cycles
            NFock= 15  Conv=0.52D-09     -V/T= 2.0033

 **********************************************************************

            Population analysis using the SCF density.

 **********************************************************************

 Orbital symmetries:
       Occupied  (A) (A) (A) (A) (A) (A) (A) (A) (A) (A) (A) (A)
                 (A) (A) (A) (A) (A) (A) (A) (A) (A) (A) (A) (A)
                 (A) (A) (A) (A) (A) (A) (A) (A) (A) (A) (A) (A)
                 (A) (A) (A)
       Virtual   (A) (A) (A) (A) (A) (A) (A) (A) (A) (A) (A) (A)
                 (A) (A) (A) (A) (A) (A) (A) (A) (A) (A) (A) (A)
                 (A) (A) (A) (A) (A) (A) (A) (A) (A) (A) (A) (A)
                 (A) (A) (A) (A) (A) (A) (A) (A) (A) (A) (A) (A)
                 (A) (A) (A) (A) (A) (A) (A) (A) (A) (A) (A) (A)
                 (A) (A) (A) (A) (A) (A) (A) (A) (A) (A) (A) (A)
                 (A) (A) (A) (A) (A) (A) (A) (A) (A) (A) (A) (A)
                 (A) (A) (A) (A) (A) (A) (A) (A) (A) (A) (A) (A)
                 (A) (A) (A) (A) (A) (A) (A) (A) (A) (A) (A) (A)
                 (A) (A) (A) (A) (A) (A) (A) (A) (A) (A) (A) (A)
                 (A) (A) (A) (A) (A) (A) (A) (A) (A) (A) (A) (A)
                 (A) (A) (A) (A) (A) (A) (A) (A) (A) (A) (A) (A)
                 (A) (A) (A) (A) (A) (A) (A) (A) (A) (A) (A) (A)
                 (A) (A) (A) (A) (A) (A) (A) (A) (A) (A) (A) (A)
                 (A) (A) (A) (A) (A) (A) (A) (A) (A) (A) (A) (A)
                 (A) (A) (A) (A) (A) (A) (A) (A) (A) (A) (A) (A)
                 (A) (A) (A) (A) (A) (A) (A) (A) (A) (A) (A) (A)
                 (A) (A) (A) (A) (A) (A) (A) (A) (A) (A) (A) (A)
                 (A) (A) (A) (A) (A) (A) (A) (A) (A) (A) (A) (A)
                 (A) (A) (A) (A) (A)
 The electronic state is 1-A.
 Alpha  occ. eigenvalues -- -101.39367 -14.43630 -14.42653 -10.27757 -10.26196
 Alpha  occ. eigenvalues --  -10.26098 -10.25683 -10.23627 -10.17707  -9.30767
 Alpha  occ. eigenvalues --   -7.06624  -7.06571  -7.06559  -1.10209  -0.98508
 Alpha  occ. eigenvalues --   -0.83927  -0.80220  -0.76366  -0.68846  -0.66754
 Alpha  occ. eigenvalues --   -0.65848  -0.62962  -0.58311  -0.53453  -0.51922
 Alpha  occ. eigenvalues --   -0.50239  -0.49812  -0.47884  -0.47213  -0.45973
 Alpha  occ. eigenvalues --   -0.44882  -0.41681  -0.39534  -0.37569  -0.33762
 Alpha  occ. eigenvalues --   -0.30149  -0.20012  -0.19667  -0.19495
 Alpha virt. eigenvalues --   -0.04402  -0.03507  -0.02393  -0.01006   0.00327
 Alpha virt. eigenvalues --    0.01636   0.01895   0.02460   0.03455   0.03755
 Alpha virt. eigenvalues --    0.04786   0.05780   0.06598   0.07084   0.07806
 Alpha virt. eigenvalues --    0.08420   0.08798   0.09112   0.10321   0.10864
 Alpha virt. eigenvalues --    0.11514   0.12332   0.12760   0.13043   0.14007
 Alpha virt. eigenvalues --    0.14303   0.14818   0.15278   0.15801   0.16248
 Alpha virt. eigenvalues --    0.16454   0.16803   0.17454   0.17757   0.18805
 Alpha virt. eigenvalues --    0.19212   0.20126   0.20829   0.21033   0.21879
 Alpha virt. eigenvalues --    0.22215   0.22864   0.23798   0.24745   0.25120
 Alpha virt. eigenvalues --    0.25756   0.26564   0.27429   0.27564   0.28093
 Alpha virt. eigenvalues --    0.29733   0.31384   0.34656   0.35980   0.37670
 Alpha virt. eigenvalues --    0.38234   0.39783   0.40416   0.42369   0.42982
 Alpha virt. eigenvalues --    0.44641   0.47755   0.49168   0.49819   0.52339
 Alpha virt. eigenvalues --    0.53104   0.53759   0.54705   0.55524   0.56667
 Alpha virt. eigenvalues --    0.57123   0.57241   0.58921   0.60355   0.61052
 Alpha virt. eigenvalues --    0.62326   0.62984   0.63818   0.65848   0.66086
 Alpha virt. eigenvalues --    0.67592   0.68248   0.68561   0.70545   0.70918
 Alpha virt. eigenvalues --    0.72484   0.74031   0.75657   0.76645   0.79835
 Alpha virt. eigenvalues --    0.81883   0.83642   0.87221   0.90619   0.92060
 Alpha virt. eigenvalues --    0.92941   0.93605   0.94298   0.99320   1.01035
 Alpha virt. eigenvalues --    1.01235   1.02239   1.02451   1.03513   1.03934
 Alpha virt. eigenvalues --    1.04716   1.06185   1.09632   1.12215   1.12704
 Alpha virt. eigenvalues --    1.19451   1.23118   1.25110   1.28416   1.30271
 Alpha virt. eigenvalues --    1.31422   1.38017   1.38258   1.40607   1.41356
 Alpha virt. eigenvalues --    1.44461   1.46156   1.49477   1.50350   1.51221
 Alpha virt. eigenvalues --    1.53363   1.53952   1.56298   1.57253   1.57585
 Alpha virt. eigenvalues --    1.59349   1.59681   1.61607   1.63490   1.65944
 Alpha virt. eigenvalues --    1.66945   1.68700   1.69783   1.71084   1.73794
 Alpha virt. eigenvalues --    1.76680   1.77646   1.78550   1.80249   1.82928
 Alpha virt. eigenvalues --    1.84828   1.88976   1.93440   1.97416   1.99990
 Alpha virt. eigenvalues --    2.01632   2.05433   2.07631   2.08587   2.09841
 Alpha virt. eigenvalues --    2.14800   2.17757   2.17844   2.19563   2.26090
 Alpha virt. eigenvalues --    2.27675   2.30253   2.36648   2.38186   2.39219
 Alpha virt. eigenvalues --    2.40075   2.42674   2.43721   2.44237   2.46753
 Alpha virt. eigenvalues --    2.47723   2.48122   2.49321   2.51115   2.52826
 Alpha virt. eigenvalues --    2.56027   2.56896   2.57840   2.59233   2.60930
 Alpha virt. eigenvalues --    2.62486   2.62861   2.64516   2.65684   2.69271
 Alpha virt. eigenvalues --    2.71449   2.73024   2.74920   2.77147   2.80358
 Alpha virt. eigenvalues --    2.84002   2.85589   2.88701   2.91937   2.94489
 Alpha virt. eigenvalues --    2.95272   2.96158   3.09694   3.18199   3.26436
 Alpha virt. eigenvalues --    3.35835   3.54550   3.56253   3.61855   3.65410
 Alpha virt. eigenvalues --    3.69635   3.71826   3.76822   3.79281   3.81989
 Alpha virt. eigenvalues --    3.84124   3.87038   3.88548   3.89235   4.07156
 Alpha virt. eigenvalues --    4.21141   4.68861   4.90137   4.92082   5.23109
 Alpha virt. eigenvalues --    9.85103  23.70920  23.83745  23.86335  23.88379
 Alpha virt. eigenvalues --   23.96074  24.13999  25.95982  26.03527  26.19461
 Alpha virt. eigenvalues --   35.42492  35.57424 215.83777
     Molecular Orbital Coefficients:
                           1         2         3         4         5
                           O         O         O         O         O
     Eigenvalues --  -101.39367 -14.43630 -14.42653 -10.27757 -10.26196
   1 1   C  1S          0.00000  -0.00001   0.00001  -0.00010   0.21680
   2        2S          0.00000   0.00005   0.00002  -0.00008   0.17864
   3        2PX         0.00000  -0.00009   0.00041  -0.00001  -0.00023
   4        2PY         0.00000  -0.00001  -0.00019   0.00009  -0.00056
   5        2PZ         0.00000   0.00001  -0.00004  -0.00001   0.00010
   6        3S         -0.00001  -0.00037   0.00037  -0.00008   0.00727
   7        3PX         0.00000   0.00059  -0.00112   0.00014   0.00180
   8        3PY         0.00000   0.00066   0.00044  -0.00031   0.00241
   9        3PZ         0.00001  -0.00014   0.00011   0.00002  -0.00057
  10        4S          0.00017   0.00001   0.00355  -0.00047  -0.00223
  11        4PX         0.00000  -0.00053   0.00236  -0.00017  -0.00160
  12        4PY        -0.00003   0.00257  -0.00303  -0.00111  -0.00096
  13        4PZ        -0.00001  -0.00026   0.00009   0.00008   0.00047
  14        5S          0.00159   0.01851  -0.01883  -0.00401  -0.00592
  15        5PX        -0.00016   0.00111  -0.00047   0.00336   0.00001
  16        5PY        -0.00041  -0.00388   0.00358   0.00120  -0.00043
  17        5PZ         0.00007   0.00022  -0.00052  -0.00103  -0.00015
  18        6D 0        0.00000  -0.00010   0.00010  -0.00012   0.00008
  19        6D+1        0.00000   0.00007   0.00001   0.00002   0.00023
  20        6D-1        0.00000   0.00000  -0.00018  -0.00002   0.00022
  21        6D+2        0.00000  -0.00029  -0.00049  -0.00018  -0.00019
  22        6D-2        0.00000  -0.00042   0.00090  -0.00018  -0.00154
  23 2   C  1S          0.00000   0.00001  -0.00001  -0.00010   0.51941
  24        2S          0.00000   0.00002   0.00005  -0.00009   0.42744
  25        2PX         0.00000   0.00021   0.00002  -0.00009   0.00031
  26        2PY         0.00001  -0.00038   0.00008   0.00001  -0.00052
  27        2PZ         0.00000   0.00001  -0.00001   0.00001   0.00001
  28        3S          0.00001   0.00040  -0.00037  -0.00008   0.01858
  29        3PX        -0.00001  -0.00043  -0.00066   0.00036  -0.00048
  30        3PY        -0.00003   0.00100  -0.00062  -0.00012   0.00066
  31        3PZ         0.00001  -0.00006   0.00016  -0.00005  -0.00003
  32        4S          0.00009   0.00352  -0.00028   0.00004  -0.01471
  33        4PX        -0.00001   0.00374  -0.00213   0.00146  -0.00536
  34        4PY        -0.00002  -0.00172   0.00067   0.00004  -0.00098
  35        4PZ         0.00000  -0.00034   0.00021  -0.00016   0.00089
  36        5S         -0.00254  -0.01678   0.01877   0.01351  -0.00651
  37        5PX        -0.00048  -0.00298   0.00411   0.00279   0.00053
  38        5PY         0.00007   0.00121   0.00046   0.00140   0.00476
  39        5PZ         0.00008   0.00027  -0.00058  -0.00039  -0.00050
  40        6D 0        0.00000   0.00014  -0.00007  -0.00011  -0.00131
  41        6D+1        0.00000  -0.00012  -0.00002  -0.00004  -0.00051
  42        6D-1        0.00000  -0.00007   0.00007   0.00002  -0.00017
  43        6D+2        0.00000   0.00032   0.00032   0.00019   0.00112
  44        6D-2        0.00000   0.00093  -0.00038  -0.00014   0.00018
  45 3   C  1S          0.00000   0.00000   0.00000   0.56288   0.00013
  46        2S         -0.00001   0.00010   0.00010   0.46327   0.00010
  47        2PX        -0.00001  -0.00050   0.00006  -0.00099   0.00008
  48        2PY         0.00000  -0.00013   0.00052   0.00082  -0.00004
  49        2PZ         0.00000   0.00008  -0.00007   0.00003   0.00000
  50        3S          0.00004   0.00012   0.00008   0.01926  -0.00014
  51        3PX         0.00004   0.00154  -0.00010   0.00031  -0.00024
  52        3PY        -0.00002   0.00045  -0.00169   0.00013   0.00008
  53        3PZ         0.00000  -0.00023   0.00024   0.00006   0.00000
  54        4S         -0.00005   0.00598   0.00523  -0.00945  -0.00083
  55        4PX        -0.00040  -0.00611  -0.00183  -0.00218  -0.00053
  56        4PY         0.00037   0.00143   0.00386   0.00064   0.00213
  57        4PZ        -0.00001   0.00060  -0.00012   0.00011  -0.00014
  58        5S          0.00056  -0.00266  -0.00121  -0.02645  -0.00801
  59        5PX        -0.00082   0.00314  -0.00383   0.00544   0.01054
  60        5PY         0.00100   0.00286  -0.00327  -0.00125   0.00138
  61        5PZ        -0.00008  -0.00113   0.00045  -0.00112  -0.00140
  62        6D 0        0.00000   0.00022   0.00017  -0.00172  -0.00019
  63        6D+1        0.00000   0.00025  -0.00009  -0.00033  -0.00002
  64        6D-1        0.00000  -0.00005   0.00022  -0.00028   0.00002
  65        6D+2       -0.00001  -0.00114   0.00125   0.00026   0.00004
  66        6D-2        0.00000  -0.00031  -0.00025  -0.00077  -0.00031
  67 4   N  1S          0.00000  -0.00062   0.55736  -0.00007  -0.00002
  68        2S          0.00000  -0.00045   0.46567  -0.00004   0.00001
  69        2PX         0.00000   0.00000  -0.00007  -0.00008  -0.00018
  70        2PY         0.00000  -0.00007   0.00004  -0.00047   0.00011
  71        2PZ         0.00000   0.00000   0.00003   0.00006   0.00002
  72        3S          0.00002  -0.00038   0.01645   0.00077   0.00021
  73        3PX         0.00000   0.00011  -0.00061   0.00021   0.00057
  74        3PY        -0.00001   0.00047  -0.00076   0.00114  -0.00031
  75        3PZ         0.00000  -0.00004   0.00024  -0.00015  -0.00006
  76        4S         -0.00018  -0.00063  -0.01688  -0.00435  -0.00250
  77        4PX         0.00006   0.00067   0.00085   0.00107   0.00010
  78        4PY         0.00011   0.00103   0.00079   0.00251  -0.00030
  79        4PZ        -0.00004  -0.00033  -0.00043  -0.00061   0.00002
  80        5S         -0.00077  -0.01135   0.01434   0.01305  -0.00543
  81        5PX         0.00066   0.01180  -0.00537   0.00328  -0.00454
  82        5PY         0.00019   0.00531  -0.00392  -0.00512   0.00589
  83        5PZ        -0.00004  -0.00210   0.00126   0.00080  -0.00022
  84        6D 0        0.00000   0.00005  -0.00048   0.00067   0.00024
  85        6D+1        0.00000  -0.00003  -0.00008   0.00007   0.00006
  86        6D-1        0.00000   0.00003  -0.00010   0.00027  -0.00004
  87        6D+2        0.00000   0.00024  -0.00019   0.00082  -0.00023
  88        6D-2        0.00000   0.00003  -0.00004  -0.00026   0.00041
  89 5   H  1S          0.00000   0.00001  -0.00013  -0.00008  -0.00008
  90        2S         -0.00001  -0.00129  -0.00013   0.00041  -0.00198
  91        3S          0.00002  -0.00065   0.00179   0.00138   0.00123
  92        4PX         0.00000   0.00000  -0.00034   0.00006   0.00006
  93        4PY         0.00000   0.00036   0.00024  -0.00004   0.00131
  94        4PZ         0.00000  -0.00004   0.00002   0.00000  -0.00016
  95 6   H  1S          0.00001  -0.00015  -0.00001  -0.00010   0.00007
  96        2S         -0.00004   0.00024  -0.00108   0.00057  -0.00477
  97        3S          0.00005   0.00151  -0.00065   0.00096   0.00152
  98        4PX         0.00000  -0.00020  -0.00033   0.00006  -0.00246
  99        4PY         0.00000   0.00029  -0.00004  -0.00005   0.00021
 100        4PZ         0.00000   0.00000   0.00005   0.00000   0.00031
 101 7   H  1S         -0.00001  -0.00014  -0.00015   0.00006  -0.00009
 102        2S          0.00007   0.00047  -0.00031  -0.00295   0.00026
 103        3S          0.00086   0.00214   0.00210   0.00480   0.00351
 104        4PX         0.00002   0.00041   0.00014   0.00168  -0.00003
 105        4PY         0.00000   0.00017  -0.00048  -0.00135   0.00000
 106        4PZ         0.00000  -0.00009   0.00004   0.00003   0.00002
 107 8   N  1S          0.00000   0.55737   0.00062  -0.00007  -0.00004
 108        2S          0.00000   0.46566   0.00058  -0.00003  -0.00005
 109        2PX         0.00000  -0.00012   0.00007   0.00046  -0.00013
 110        2PY         0.00000  -0.00007   0.00002   0.00013   0.00032
 111        2PZ         0.00000   0.00001  -0.00001  -0.00008  -0.00002
 112        3S          0.00001   0.01653  -0.00034   0.00071   0.00070
 113        3PX         0.00000   0.00077  -0.00043  -0.00119   0.00009
 114        3PY         0.00001   0.00070  -0.00018  -0.00034  -0.00064
 115        3PZ         0.00000  -0.00020   0.00009   0.00022   0.00006
 116        4S         -0.00016  -0.01828  -0.00062  -0.00456  -0.00194
 117        4PX         0.00001  -0.00166  -0.00106  -0.00239   0.00115
 118        4PY        -0.00014  -0.00135  -0.00035  -0.00164   0.00003
 119        4PZ         0.00002   0.00042   0.00015   0.00054  -0.00016
 120        5S          0.00006   0.01294  -0.01068   0.00874   0.01610
 121        5PX        -0.00008   0.00445  -0.00363   0.00517   0.00382
 122        5PY         0.00006   0.00945  -0.00785  -0.00038   0.01491
 123        5PZ         0.00001  -0.00159   0.00169  -0.00080  -0.00234
 124        6D 0        0.00000  -0.00047   0.00004   0.00065   0.00048
 125        6D+1        0.00000  -0.00015   0.00005   0.00034   0.00002
 126        6D-1        0.00000  -0.00008  -0.00001   0.00012   0.00007
 127        6D+2        0.00001   0.00013  -0.00024  -0.00077   0.00037
 128        6D-2        0.00000   0.00002  -0.00002  -0.00042   0.00045
 129 9   C  1S          0.00000   0.00000   0.00001  -0.00005  -0.00007
 130        2S          0.00000   0.00002  -0.00002  -0.00002  -0.00003
 131        2PX         0.00000  -0.00004  -0.00027  -0.00004  -0.00001
 132        2PY         0.00000  -0.00003  -0.00013   0.00004  -0.00003
 133        2PZ         0.00000   0.00001   0.00007   0.00002   0.00002
 134        3S          0.00000  -0.00013  -0.00001  -0.00023  -0.00040
 135        3PX         0.00000   0.00022   0.00045   0.00022   0.00011
 136        3PY         0.00001   0.00013   0.00017  -0.00007   0.00011
 137        3PZ         0.00000  -0.00007  -0.00034  -0.00013  -0.00014
 138        4S         -0.00005  -0.00066   0.00406   0.00001   0.00278
 139        4PX         0.00009   0.00094  -0.00151   0.00104  -0.00098
 140        4PY        -0.00003  -0.00108  -0.00085  -0.00028  -0.00048
 141        4PZ         0.00005   0.00052   0.00021   0.00130   0.00024
 142        5S          0.00035  -0.01249  -0.00591  -0.01550  -0.01118
 143        5PX         0.00016   0.00278  -0.00129   0.00022  -0.00010
 144        5PY         0.00025   0.00189  -0.00089  -0.00068   0.00010
 145        5PZ         0.00023  -0.00103  -0.00273  -0.00358  -0.00258
 146        6D 0        0.00000   0.00000   0.00024  -0.00001  -0.00002
 147        6D+1        0.00000  -0.00002   0.00008  -0.00002   0.00000
 148        6D-1        0.00001   0.00008   0.00004   0.00005  -0.00003
 149        6D+2        0.00000  -0.00006  -0.00026  -0.00016   0.00001
 150        6D-2        0.00000  -0.00006  -0.00036   0.00000  -0.00009
 151 10  C  1S          0.00000   0.00000   0.00000   0.00001  -0.00001
 152        2S          0.00000   0.00000   0.00002  -0.00001   0.00000
 153        2PX         0.00000   0.00000  -0.00004   0.00000  -0.00001
 154        2PY         0.00000  -0.00001  -0.00003   0.00001  -0.00002
 155        2PZ         0.00000   0.00000  -0.00008   0.00000  -0.00002
 156        3S          0.00002   0.00008  -0.00013   0.00025  -0.00004
 157        3PX         0.00000   0.00000   0.00024  -0.00001   0.00006
 158        3PY        -0.00001   0.00004   0.00014  -0.00009   0.00008
 159        3PZ         0.00000  -0.00001   0.00045  -0.00002   0.00005
 160        4S         -0.00013  -0.00105   0.00028  -0.00198  -0.00026
 161        4PX         0.00001  -0.00019  -0.00028   0.00070   0.00003
 162        4PY         0.00005   0.00068  -0.00013   0.00108  -0.00018
 163        4PZ         0.00007   0.00062  -0.00008   0.00074  -0.00006
 164        5S         -0.00099   0.00266   0.00964   0.01409   0.00839
 165        5PX         0.00011  -0.00062  -0.00162  -0.00202  -0.00139
 166        5PY         0.00010  -0.00059  -0.00101  -0.00172  -0.00061
 167        5PZ         0.00022  -0.00025  -0.00185  -0.00260  -0.00169
 168        6D 0        0.00000  -0.00001  -0.00009   0.00000   0.00001
 169        6D+1        0.00000  -0.00001  -0.00013  -0.00002  -0.00002
 170        6D-1       -0.00001  -0.00004  -0.00009  -0.00004   0.00000
 171        6D+2        0.00000   0.00002   0.00002   0.00001   0.00001
 172        6D-2        0.00000  -0.00003   0.00001  -0.00001   0.00002
 173 11  H  1S          0.00000  -0.00003   0.00000   0.00001   0.00002
 174        2S          0.00003   0.00036  -0.00101   0.00005  -0.00053
 175        3S         -0.00006  -0.00069   0.00117   0.00124   0.00040
 176        4PX         0.00000   0.00000  -0.00002  -0.00001   0.00005
 177        4PY         0.00000   0.00001   0.00025  -0.00001   0.00008
 178        4PZ         0.00000   0.00003  -0.00015  -0.00003  -0.00007
 179 12  H  1S          0.00001   0.00004   0.00002  -0.00001   0.00004
 180        2S         -0.00006  -0.00066  -0.00115  -0.00052  -0.00047
 181        3S         -0.00005  -0.00116   0.00117  -0.00105   0.00192
 182        4PX         0.00000   0.00001   0.00020   0.00005   0.00004
 183        4PY         0.00000  -0.00004  -0.00018   0.00005  -0.00007
 184        4PZ         0.00000  -0.00009  -0.00012  -0.00013  -0.00003
 185 13  H  1S          0.00000  -0.00002  -0.00004  -0.00001  -0.00002
 186        2S          0.00001   0.00014  -0.00005   0.00009   0.00009
 187        3S          0.00004   0.00001   0.00022  -0.00080   0.00006
 188        4PX         0.00000   0.00000   0.00005   0.00001  -0.00002
 189        4PY        -0.00001  -0.00007   0.00003  -0.00006   0.00002
 190        4PZ         0.00000  -0.00002  -0.00004  -0.00001  -0.00002
 191 14  H  1S          0.00000   0.00002   0.00004  -0.00003  -0.00002
 192        2S          0.00000  -0.00020  -0.00029   0.00033   0.00020
 193        3S         -0.00001  -0.00065  -0.00019  -0.00094  -0.00036
 194        4PX         0.00000  -0.00003   0.00000  -0.00002   0.00003
 195        4PY         0.00000   0.00000   0.00013  -0.00005   0.00000
 196        4PZ         0.00000   0.00001   0.00008  -0.00003   0.00003
 197 15  H  1S          0.00001   0.00000   0.00006  -0.00002  -0.00003
 198        2S         -0.00003   0.00012  -0.00036   0.00044   0.00018
 199        3S          0.00003  -0.00045  -0.00011  -0.00143   0.00022
 200        4PX         0.00000   0.00005   0.00011   0.00005  -0.00005
 201        4PY         0.00000   0.00003  -0.00007   0.00006  -0.00001
 202        4PZ         0.00001   0.00001   0.00011   0.00006  -0.00003
 203 16  C  1S          0.00000   0.00001   0.00000  -0.00010  -0.00049
 204        2S          0.00000  -0.00003   0.00002  -0.00006  -0.00038
 205        2PX         0.00000   0.00013   0.00002  -0.00005   0.00004
 206        2PY         0.00000   0.00032   0.00004   0.00004  -0.00001
 207        2PZ         0.00000  -0.00005   0.00000   0.00001  -0.00001
 208        3S         -0.00002   0.00004  -0.00010  -0.00017  -0.00039
 209        3PX        -0.00001  -0.00029  -0.00011   0.00009  -0.00018
 210        3PY         0.00000  -0.00072  -0.00018  -0.00021   0.00000
 211        3PZ         0.00000   0.00011   0.00002  -0.00001   0.00003
 212        4S         -0.00001   0.00502  -0.00037  -0.00043   0.00331
 213        4PX         0.00000   0.00084   0.00062  -0.00029   0.00071
 214        4PY        -0.00003   0.00163  -0.00019  -0.00054   0.00074
 215        4PZ        -0.00001  -0.00027  -0.00006   0.00023  -0.00020
 216        5S          0.00067   0.00868  -0.00758   0.00765   0.01723
 217        5PX         0.00013   0.00119  -0.00137   0.00119   0.00185
 218        5PY         0.00014   0.00216  -0.00195   0.00187   0.00491
 219        5PZ        -0.00004  -0.00031   0.00054  -0.00023  -0.00085
 220        6D 0        0.00000   0.00035   0.00001  -0.00001  -0.00004
 221        6D+1        0.00000   0.00008   0.00000  -0.00003   0.00000
 222        6D-1        0.00000   0.00016   0.00002   0.00001   0.00000
 223        6D+2        0.00000   0.00037   0.00008   0.00016  -0.00003
 224        6D-2        0.00000  -0.00031  -0.00002   0.00002  -0.00007
 225 17  H  1S          0.00000  -0.00002  -0.00001   0.00002   0.00000
 226        2S          0.00001  -0.00105   0.00003  -0.00010  -0.00020
 227        3S         -0.00007   0.00080  -0.00062  -0.00070   0.00050
 228        4PX         0.00000  -0.00019  -0.00005  -0.00005  -0.00002
 229        4PY         0.00000  -0.00004  -0.00001  -0.00001  -0.00005
 230        4PZ         0.00000   0.00028   0.00000   0.00004   0.00006
 231 18  H  1S          0.00000  -0.00002   0.00001   0.00002   0.00001
 232        2S          0.00001  -0.00107  -0.00009  -0.00006  -0.00022
 233        3S         -0.00010   0.00098  -0.00029  -0.00053   0.00049
 234        4PX         0.00000  -0.00024  -0.00006  -0.00004  -0.00004
 235        4PY         0.00000  -0.00011   0.00000  -0.00002  -0.00006
 236        4PZ         0.00000  -0.00023   0.00000  -0.00002  -0.00004
 237 19  H  1S          0.00000   0.00002   0.00000  -0.00010   0.00001
 238        2S          0.00001  -0.00108  -0.00025   0.00014  -0.00037
 239        3S         -0.00004   0.00065  -0.00066  -0.00154   0.00116
 240        4PX         0.00000   0.00020   0.00004   0.00000   0.00006
 241        4PY         0.00000  -0.00023   0.00001  -0.00004  -0.00003
 242        4PZ         0.00000   0.00001   0.00000   0.00000   0.00000
 243 20  Cl 1S          0.41161   0.00000   0.00000   0.00000   0.00000
 244        2S          0.65408   0.00000   0.00000  -0.00001   0.00000
 245        3S          0.01500   0.00002   0.00002   0.00006   0.00000
 246        4S         -0.00396  -0.00005  -0.00006  -0.00015   0.00000
 247        5S          0.00149   0.00015   0.00015   0.00045   0.00003
 248        6S         -0.00109  -0.00044  -0.00028  -0.00103  -0.00012
 249        7S          0.00090   0.00016   0.00075  -0.00036  -0.00289
 250        7PX        -0.00039  -0.00006  -0.00030  -0.00025   0.00082
 251        7PY         0.00020   0.00002   0.00024  -0.00021  -0.00053
 252        7PZ        -0.00001   0.00002  -0.00003   0.00002   0.00013
 253        8PX        -0.00001   0.00002   0.00001   0.00004   0.00001
 254        8PY         0.00001  -0.00001   0.00000  -0.00002   0.00000
 255        8PZ         0.00000   0.00001   0.00000   0.00000   0.00000
 256        9PX         0.00000   0.00001   0.00000   0.00002   0.00000
 257        9PY         0.00000   0.00000   0.00000  -0.00001   0.00000
 258        9PZ         0.00000   0.00000   0.00000   0.00000   0.00000
 259       10PX         0.00001  -0.00006  -0.00001  -0.00012  -0.00003
 260       10PY         0.00000   0.00003   0.00000   0.00007   0.00001
 261       10PZ         0.00000  -0.00002  -0.00001  -0.00001   0.00001
 262       11PX        -0.00002   0.00011   0.00000   0.00016   0.00005
 263       11PY         0.00001  -0.00006   0.00001  -0.00014  -0.00004
 264       11PZ         0.00000   0.00003   0.00001   0.00001  -0.00003
 265       12PX         0.00021   0.00003   0.00022   0.00068   0.00048
 266       12PY        -0.00008  -0.00004  -0.00002  -0.00017   0.00013
 267       12PZ         0.00002  -0.00003   0.00001   0.00003   0.00009
 268       13D 0        0.00001   0.00000   0.00001   0.00003   0.00001
 269       13D+1        0.00000  -0.00001   0.00000  -0.00001  -0.00001
 270       13D-1        0.00000   0.00000   0.00000   0.00000   0.00001
 271       13D+2       -0.00001   0.00001   0.00000  -0.00001  -0.00005
 272       13D-2        0.00001  -0.00001   0.00000   0.00002  -0.00001
                           6         7         8         9        10
                           O         O         O         O         O
     Eigenvalues --   -10.26098 -10.25683 -10.23627 -10.17707  -9.30767
   1 1   C  1S          0.51948   0.00017   0.00009   0.00000   0.00000
   2        2S          0.42727   0.00016   0.00009   0.00001   0.00001
   3        2PX         0.00092  -0.00001   0.00007  -0.00002  -0.00001
   4        2PY         0.00016  -0.00002  -0.00002   0.00000   0.00000
   5        2PZ        -0.00015   0.00000  -0.00001  -0.00001  -0.00003
   6        3S          0.01909  -0.00017  -0.00021  -0.00002  -0.00026
   7        3PX        -0.00263   0.00006  -0.00042   0.00015   0.00002
   8        3PY        -0.00179   0.00012   0.00022  -0.00001   0.00001
   9        3PZ         0.00055   0.00000   0.00003   0.00004   0.00011
  10        4S         -0.01835   0.00237  -0.00025   0.00206   0.00311
  11        4PX         0.00109  -0.00005  -0.00007  -0.00160  -0.00011
  12        4PY         0.00756  -0.00170   0.00171  -0.00152  -0.00068
  13        4PZ        -0.00100   0.00010  -0.00027  -0.00010  -0.00023
  14        5S         -0.04666  -0.00106   0.01978   0.02070   0.03180
  15        5PX         0.00009   0.00202  -0.00401  -0.00609  -0.00357
  16        5PY         0.00874  -0.00022  -0.00261  -0.00459  -0.00823
  17        5PZ        -0.00110  -0.00030   0.00055   0.00100   0.00139
  18        6D 0       -0.00196   0.00002  -0.00011   0.00002  -0.00005
  19        6D+1       -0.00049   0.00000   0.00000  -0.00005   0.00000
  20        6D-1       -0.00077   0.00001  -0.00003   0.00000  -0.00003
  21        6D+2       -0.00141   0.00003  -0.00025  -0.00006  -0.00005
  22        6D-2        0.00154   0.00000   0.00009   0.00002   0.00001
  23 2   C  1S         -0.21697   0.00046   0.00003   0.00000   0.00000
  24        2S         -0.17823   0.00040   0.00005   0.00001  -0.00001
  25        2PX         0.00044   0.00005   0.00003   0.00002   0.00002
  26        2PY         0.00087  -0.00006   0.00002   0.00000   0.00008
  27        2PZ        -0.00016   0.00000  -0.00001  -0.00001  -0.00002
  28        3S         -0.00846  -0.00016  -0.00020  -0.00010   0.00011
  29        3PX        -0.00270  -0.00038  -0.00017  -0.00013  -0.00010
  30        3PY        -0.00333   0.00042  -0.00013   0.00000  -0.00048
  31        3PZ         0.00077   0.00002   0.00007   0.00005   0.00009
  32        4S          0.01118  -0.00221   0.00185  -0.00194   0.00147
  33        4PX         0.00569  -0.00212   0.00159  -0.00015  -0.00023
  34        4PY         0.00212   0.00020  -0.00014  -0.00070  -0.00029
  35        4PZ        -0.00105   0.00028  -0.00024   0.00013  -0.00001
  36        5S          0.04026   0.00501  -0.01719  -0.01990  -0.05114
  37        5PX         0.00869  -0.00044  -0.00262  -0.00274  -0.00967
  38        5PY         0.00287   0.00095  -0.00492  -0.00530   0.00103
  39        5PZ        -0.00149  -0.00007   0.00105   0.00121   0.00156
  40        6D 0        0.00144  -0.00004  -0.00001  -0.00001  -0.00002
  41        6D+1        0.00071  -0.00005   0.00000   0.00000   0.00001
  42        6D-1        0.00056  -0.00001   0.00000   0.00002   0.00001
  43        6D+2       -0.00053   0.00017  -0.00005   0.00001  -0.00002
  44        6D-2       -0.00227   0.00015  -0.00002   0.00000  -0.00005
  45 3   C  1S          0.00005   0.00010   0.00004   0.00000   0.00000
  46        2S          0.00004   0.00010   0.00005  -0.00002  -0.00006
  47        2PX         0.00004  -0.00003   0.00002   0.00000  -0.00008
  48        2PY        -0.00002  -0.00001   0.00005  -0.00001   0.00006
  49        2PZ         0.00000   0.00000   0.00000   0.00000   0.00000
  50        3S         -0.00005  -0.00013  -0.00019   0.00025   0.00066
  51        3PX        -0.00009   0.00027  -0.00011   0.00006   0.00059
  52        3PY         0.00012   0.00008  -0.00036   0.00012  -0.00026
  53        3PZ        -0.00002  -0.00004   0.00002   0.00002  -0.00002
  54        4S         -0.00008  -0.00195  -0.00121  -0.00055  -0.00091
  55        4PX        -0.00136   0.00148   0.00310  -0.00185  -0.00717
  56        4PY        -0.00020  -0.00332   0.00016  -0.00099   0.00681
  57        4PZ         0.00020   0.00020  -0.00031  -0.00008  -0.00026
  58        5S         -0.00184   0.00339   0.00525   0.00117   0.01107
  59        5PX         0.00094  -0.00190  -0.00395  -0.00638  -0.01664
  60        5PY        -0.00097  -0.00123  -0.00106  -0.00434   0.01979
  61        5PZ        -0.00006   0.00008  -0.00026   0.00074  -0.00152
  62        6D 0       -0.00007  -0.00001  -0.00010   0.00008   0.00000
  63        6D+1        0.00001   0.00002   0.00001  -0.00003  -0.00001
  64        6D-1       -0.00001  -0.00003  -0.00001  -0.00003   0.00002
  65        6D+2       -0.00010  -0.00010   0.00014   0.00003  -0.00022
  66        6D-2       -0.00013  -0.00002  -0.00008  -0.00003  -0.00002
  67 4   N  1S         -0.00004   0.00000  -0.00002   0.00000   0.00000
  68        2S         -0.00007   0.00001  -0.00006   0.00002  -0.00002
  69        2PX        -0.00029   0.00000   0.00018   0.00006  -0.00002
  70        2PY         0.00005  -0.00003   0.00010   0.00004   0.00003
  71        2PZ         0.00005   0.00000  -0.00005   0.00000  -0.00002
  72        3S          0.00075  -0.00012   0.00025  -0.00013   0.00032
  73        3PX         0.00038  -0.00002  -0.00004  -0.00031   0.00007
  74        3PY         0.00016   0.00013  -0.00008  -0.00019  -0.00017
  75        3PZ        -0.00011  -0.00001   0.00009   0.00000   0.00008
  76        4S         -0.00061   0.00114   0.00292   0.00068  -0.00324
  77        4PX         0.00004  -0.00001  -0.00033   0.00134   0.00109
  78        4PY        -0.00068  -0.00128   0.00052   0.00051   0.00216
  79        4PZ         0.00017   0.00008   0.00017  -0.00014  -0.00070
  80        5S          0.02839   0.00752   0.00744   0.00405  -0.01501
  81        5PX        -0.01906  -0.00125   0.01680   0.01198   0.01264
  82        5PY        -0.00684  -0.00312   0.01025   0.00472   0.00389
  83        5PZ         0.00387   0.00097  -0.00225  -0.00064  -0.00070
  84        6D 0        0.00043   0.00002   0.00008   0.00004   0.00004
  85        6D+1        0.00016   0.00000   0.00011   0.00001   0.00000
  86        6D-1        0.00002   0.00000   0.00006   0.00001   0.00002
  87        6D+2       -0.00037   0.00001  -0.00019  -0.00002   0.00003
  88        6D-2        0.00016   0.00001  -0.00027  -0.00002  -0.00005
  89 5   H  1S          0.00016  -0.00001   0.00007  -0.00004   0.00002
  90        2S         -0.00447   0.00016  -0.00108   0.00037  -0.00019
  91        3S          0.00081   0.00069  -0.00062  -0.00045   0.00033
  92        4PX        -0.00056   0.00001  -0.00016   0.00001  -0.00003
  93        4PY         0.00213   0.00000   0.00025   0.00002   0.00007
  94        4PZ        -0.00015   0.00000   0.00001   0.00001   0.00000
  95 6   H  1S         -0.00016   0.00003  -0.00001  -0.00001   0.00008
  96        2S          0.00176  -0.00073   0.00007   0.00006  -0.00063
  97        3S          0.00037  -0.00122   0.00102   0.00028   0.00101
  98        4PX         0.00062  -0.00023   0.00000  -0.00001  -0.00007
  99        4PY        -0.00039   0.00011  -0.00002   0.00002   0.00005
 100        4PZ        -0.00004   0.00002   0.00000  -0.00001   0.00000
 101 7   H  1S         -0.00003   0.00005   0.00007  -0.00004  -0.00005
 102        2S          0.00017  -0.00052  -0.00098   0.00049   0.00114
 103        3S          0.00141  -0.00382  -0.00091  -0.00070   0.01648
 104        4PX         0.00002   0.00022   0.00001   0.00000   0.00037
 105        4PY         0.00009   0.00003  -0.00027   0.00003   0.00004
 106        4PZ        -0.00001  -0.00003   0.00005   0.00001   0.00007
 107 8   N  1S          0.00002  -0.00003   0.00000   0.00000   0.00000
 108        2S          0.00006  -0.00007   0.00001   0.00000  -0.00002
 109        2PX        -0.00004  -0.00009   0.00004   0.00000   0.00001
 110        2PY        -0.00009  -0.00018   0.00000   0.00001  -0.00004
 111        2PZ         0.00001   0.00003  -0.00002   0.00000   0.00001
 112        3S         -0.00036   0.00031  -0.00010   0.00001   0.00020
 113        3PX         0.00035   0.00005  -0.00021  -0.00001  -0.00003
 114        3PY        -0.00009  -0.00009  -0.00003  -0.00006   0.00025
 115        3PZ        -0.00004   0.00001   0.00009   0.00000  -0.00005
 116        4S         -0.00141   0.00259   0.00062  -0.00076  -0.00272
 117        4PX        -0.00037   0.00027   0.00164  -0.00010   0.00016
 118        4PY        -0.00011   0.00257   0.00021   0.00059  -0.00258
 119        4PZ         0.00006  -0.00039  -0.00043   0.00000   0.00043
 120        5S         -0.02227   0.00529   0.01040   0.00176   0.00126
 121        5PX        -0.00709  -0.00475   0.00576   0.00158  -0.00140
 122        5PY        -0.01291  -0.00892   0.00804   0.00429   0.00120
 123        5PZ         0.00243   0.00176  -0.00163  -0.00088   0.00026
 124        6D 0       -0.00014   0.00009   0.00002  -0.00001  -0.00003
 125        6D+1       -0.00003   0.00002   0.00001   0.00000  -0.00002
 126        6D-1       -0.00007   0.00009   0.00000   0.00000  -0.00001
 127        6D+2       -0.00015   0.00024  -0.00001   0.00000   0.00008
 128        6D-2        0.00016  -0.00027   0.00000   0.00000   0.00007
 129 9   C  1S         -0.00007  -0.00002   0.56302  -0.00113   0.00000
 130        2S         -0.00005  -0.00001   0.46322  -0.00096   0.00000
 131        2PX         0.00002   0.00000  -0.00104   0.00017   0.00001
 132        2PY        -0.00002  -0.00001  -0.00024   0.00012  -0.00006
 133        2PZ         0.00001   0.00001   0.00035   0.00044   0.00001
 134        3S         -0.00017  -0.00008   0.01960   0.00050   0.00000
 135        3PX        -0.00005   0.00001   0.00122  -0.00016   0.00002
 136        3PY         0.00008   0.00005   0.00007  -0.00017   0.00016
 137        3PZ        -0.00008  -0.00004  -0.00167  -0.00105   0.00001
 138        4S          0.00176   0.00058  -0.01842  -0.00057  -0.00095
 139        4PX        -0.00018  -0.00019   0.00217   0.00235   0.00171
 140        4PY        -0.00055   0.00036   0.00113   0.00134  -0.00046
 141        4PZ         0.00023   0.00043  -0.00185   0.00204   0.00088
 142        5S          0.00054  -0.00180  -0.04004   0.02058   0.00782
 143        5PX        -0.00299   0.00056   0.00338   0.00091   0.00305
 144        5PY        -0.00163   0.00036   0.00274   0.00148   0.00508
 145        5PZ        -0.00207  -0.00016  -0.00688   0.00473   0.00478
 146        6D 0       -0.00002   0.00001   0.00013  -0.00040   0.00006
 147        6D+1       -0.00001   0.00001  -0.00013  -0.00043  -0.00003
 148        6D-1       -0.00002  -0.00001  -0.00014  -0.00026   0.00017
 149        6D+2        0.00000   0.00002  -0.00066  -0.00016   0.00004
 150        6D-2       -0.00005  -0.00003  -0.00104  -0.00028   0.00006
 151 10  C  1S          0.00000   0.00000   0.00111   0.56295   0.00000
 152        2S          0.00000   0.00000   0.00088   0.46315  -0.00003
 153        2PX         0.00001   0.00000  -0.00014  -0.00019   0.00001
 154        2PY        -0.00001   0.00000  -0.00012   0.00006   0.00001
 155        2PZ        -0.00002   0.00000  -0.00046  -0.00033   0.00000
 156        3S         -0.00001   0.00006   0.00032   0.01974   0.00041
 157        3PX        -0.00004   0.00001   0.00036   0.00075  -0.00004
 158        3PY         0.00009  -0.00002   0.00033   0.00020  -0.00015
 159        3PZ         0.00005   0.00000   0.00117   0.00133   0.00001
 160        4S          0.00045  -0.00061   0.00419  -0.01333  -0.00246
 161        4PX         0.00032   0.00043  -0.00050   0.00186   0.00025
 162        4PY         0.00036   0.00018  -0.00035   0.00129   0.00087
 163        4PZ        -0.00057   0.00017  -0.00141   0.00199   0.00132
 164        5S          0.00749   0.00028   0.01957  -0.02108  -0.02014
 165        5PX        -0.00088  -0.00019  -0.00282   0.00175   0.00226
 166        5PY        -0.00050  -0.00003  -0.00167   0.00147   0.00204
 167        5PZ        -0.00166   0.00004  -0.00336   0.00383   0.00442
 168        6D 0        0.00001  -0.00001  -0.00072  -0.00055  -0.00004
 169        6D+1       -0.00001  -0.00001  -0.00048  -0.00048   0.00000
 170        6D-1        0.00002   0.00000  -0.00037  -0.00036  -0.00012
 171        6D+2        0.00004   0.00001   0.00003  -0.00009  -0.00003
 172        6D-2        0.00002   0.00002  -0.00008  -0.00015  -0.00005
 173 11  H  1S          0.00001   0.00000   0.00004  -0.00012  -0.00004
 174        2S         -0.00014  -0.00016  -0.00242  -0.00015   0.00058
 175        3S          0.00207   0.00045   0.00184  -0.00310  -0.00125
 176        4PX         0.00006  -0.00001  -0.00045  -0.00004  -0.00001
 177        4PY         0.00004   0.00000   0.00166   0.00017  -0.00007
 178        4PZ        -0.00004  -0.00004  -0.00116  -0.00020   0.00005
 179 12  H  1S          0.00002   0.00000   0.00008  -0.00008   0.00009
 180        2S         -0.00027   0.00000  -0.00296  -0.00051  -0.00100
 181        3S          0.00237   0.00040   0.00412  -0.00212  -0.00087
 182        4PX         0.00001   0.00000   0.00125   0.00016   0.00000
 183        4PY        -0.00002   0.00001  -0.00158  -0.00015   0.00005
 184        4PZ        -0.00002  -0.00001  -0.00087  -0.00012  -0.00002
 185 13  H  1S          0.00002   0.00001  -0.00002   0.00022   0.00000
 186        2S         -0.00021  -0.00007  -0.00112  -0.00336   0.00016
 187        3S         -0.00026   0.00000  -0.00012   0.00363   0.00095
 188        4PX         0.00004   0.00000   0.00034   0.00179  -0.00003
 189        4PY         0.00000   0.00001   0.00019   0.00100  -0.00009
 190        4PZ         0.00000  -0.00001  -0.00010  -0.00051  -0.00004
 191 14  H  1S          0.00000  -0.00002  -0.00007   0.00018   0.00001
 192        2S          0.00010   0.00022  -0.00082  -0.00269  -0.00005
 193        3S          0.00015  -0.00020  -0.00071   0.00309  -0.00014
 194        4PX         0.00000   0.00001  -0.00020  -0.00131   0.00000
 195        4PY         0.00000  -0.00001   0.00021   0.00115  -0.00003
 196        4PZ         0.00004  -0.00001   0.00014   0.00092  -0.00005
 197 15  H  1S         -0.00005  -0.00001  -0.00005   0.00019   0.00013
 198        2S          0.00045   0.00011  -0.00087  -0.00304  -0.00053
 199        3S          0.00022  -0.00008   0.00030   0.00389   0.00069
 200        4PX        -0.00004  -0.00002   0.00003   0.00033   0.00007
 201        4PY         0.00003   0.00001  -0.00029  -0.00175   0.00006
 202        4PZ        -0.00004  -0.00001   0.00007   0.00108   0.00012
 203 16  C  1S          0.00002   0.56300   0.00002   0.00000   0.00000
 204        2S          0.00003   0.46316   0.00002   0.00000   0.00003
 205        2PX         0.00001   0.00030   0.00001   0.00000   0.00003
 206        2PY         0.00001   0.00098   0.00001  -0.00001   0.00000
 207        2PZ         0.00000  -0.00016   0.00000   0.00001  -0.00001
 208        3S         -0.00015   0.01964  -0.00012  -0.00001  -0.00027
 209        3PX        -0.00005  -0.00053  -0.00009   0.00002  -0.00016
 210        3PY        -0.00009  -0.00185  -0.00003   0.00005  -0.00008
 211        3PZ         0.00001   0.00030  -0.00001  -0.00005   0.00006
 212        4S          0.00072  -0.01046   0.00161   0.00101  -0.00016
 213        4PX         0.00020  -0.00030  -0.00031   0.00017  -0.00003
 214        4PY         0.00025  -0.00126   0.00087   0.00024  -0.00059
 215        4PZ         0.00000   0.00029   0.00017   0.00024  -0.00014
 216        5S         -0.00364  -0.01481  -0.00371  -0.00587   0.01290
 217        5PX        -0.00038  -0.00154  -0.00063  -0.00077   0.00258
 218        5PY        -0.00106  -0.00350  -0.00083  -0.00137   0.00277
 219        5PZ         0.00019   0.00071   0.00052   0.00059  -0.00081
 220        6D 0        0.00001   0.00049   0.00002   0.00001   0.00001
 221        6D+1        0.00001   0.00010   0.00000  -0.00001   0.00001
 222        6D-1        0.00001   0.00027   0.00002  -0.00001   0.00000
 223        6D+2        0.00001   0.00069  -0.00003   0.00000   0.00000
 224        6D-2       -0.00004  -0.00065  -0.00003   0.00000  -0.00006
 225 17  H  1S          0.00001   0.00016   0.00004   0.00002  -0.00002
 226        2S         -0.00020  -0.00315  -0.00042  -0.00017   0.00012
 227        3S         -0.00146   0.00249   0.00113   0.00066  -0.00135
 228        4PX        -0.00002  -0.00099  -0.00002  -0.00002  -0.00003
 229        4PY        -0.00001   0.00012  -0.00001   0.00001  -0.00002
 230        4PZ         0.00004   0.00186   0.00006   0.00001   0.00002
 231 18  H  1S          0.00001   0.00016   0.00004   0.00001  -0.00002
 232        2S         -0.00018  -0.00311  -0.00038  -0.00010   0.00013
 233        3S         -0.00138   0.00269   0.00169   0.00128  -0.00191
 234        4PX        -0.00002  -0.00130  -0.00001   0.00001  -0.00006
 235        4PY        -0.00003  -0.00034  -0.00004   0.00001  -0.00002
 236        4PZ        -0.00004  -0.00160  -0.00005  -0.00001   0.00000
 237 19  H  1S          0.00001   0.00017   0.00001   0.00002  -0.00002
 238        2S         -0.00019  -0.00343  -0.00009  -0.00013   0.00010
 239        3S         -0.00124   0.00254   0.00143   0.00051  -0.00062
 240        4PX         0.00004   0.00174   0.00000   0.00000   0.00003
 241        4PY        -0.00005  -0.00134   0.00000  -0.00002  -0.00002
 242        4PZ         0.00000   0.00001  -0.00002  -0.00001   0.00001
 243 20  Cl 1S          0.00000   0.00000   0.00000   0.00000  -0.12180
 244        2S          0.00000   0.00000   0.00000   0.00000  -0.32695
 245        3S         -0.00001  -0.00003   0.00000   0.00003   0.49753
 246        4S          0.00003   0.00006   0.00000  -0.00007   0.61071
 247        5S         -0.00009  -0.00022   0.00003   0.00021   0.05868
 248        6S          0.00013   0.00052  -0.00003  -0.00035  -0.02451
 249        7S         -0.00060   0.00093   0.00233   0.00146   0.01861
 250        7PX         0.00015  -0.00014  -0.00042  -0.00003  -0.00782
 251        7PY        -0.00026   0.00013   0.00070   0.00076   0.00402
 252        7PZ         0.00005   0.00005  -0.00022   0.00004  -0.00028
 253        8PX         0.00000  -0.00002   0.00001   0.00001  -0.00082
 254        8PY         0.00000   0.00000  -0.00002  -0.00002   0.00044
 255        8PZ         0.00000   0.00000  -0.00001   0.00000  -0.00006
 256        9PX         0.00000  -0.00001   0.00000   0.00001   0.00031
 257        9PY         0.00000   0.00000  -0.00001  -0.00001  -0.00016
 258        9PZ         0.00000   0.00000   0.00000   0.00000   0.00002
 259       10PX        -0.00001   0.00005  -0.00003  -0.00005  -0.00017
 260       10PY         0.00001   0.00000   0.00008   0.00005   0.00009
 261       10PZ         0.00000  -0.00001   0.00004  -0.00001   0.00002
 262       11PX         0.00003  -0.00010   0.00007   0.00008  -0.00022
 263       11PY        -0.00005   0.00000  -0.00016  -0.00005   0.00010
 264       11PZ        -0.00001   0.00002  -0.00008   0.00004  -0.00008
 265       12PX         0.00005  -0.00054  -0.00021  -0.00019   0.00414
 266       12PY         0.00027   0.00009   0.00012  -0.00030  -0.00170
 267       12PZ         0.00004  -0.00006   0.00022  -0.00013   0.00033
 268       13D 0        0.00000  -0.00003   0.00001   0.00002   0.00010
 269       13D+1        0.00000   0.00001  -0.00001   0.00001  -0.00003
 270       13D-1        0.00001   0.00000   0.00002  -0.00002   0.00001
 271       13D+2       -0.00002   0.00005   0.00004   0.00004  -0.00016
 272       13D-2       -0.00002  -0.00001   0.00003   0.00002   0.00009
                          11        12        13        14        15
                           O         O         O         O         O
     Eigenvalues --    -7.06624  -7.06571  -7.06559  -1.10209  -0.98508
   1 1   C  1S          0.00000   0.00000   0.00000  -0.03590  -0.02637
   2        2S          0.00000   0.00000   0.00000  -0.05496  -0.04053
   3        2PX         0.00000   0.00000   0.00000   0.01821   0.03642
   4        2PY         0.00000   0.00000   0.00000  -0.03095  -0.00762
   5        2PZ         0.00000   0.00000   0.00000   0.00076  -0.00440
   6        3S          0.00001   0.00000  -0.00001   0.13825   0.10395
   7        3PX         0.00001   0.00001  -0.00001   0.02723   0.05764
   8        3PY        -0.00001   0.00000   0.00000  -0.04487  -0.01259
   9        3PZ         0.00000   0.00000   0.00000   0.00102  -0.00686
  10        4S          0.00013   0.00005  -0.00004   0.05127   0.06298
  11        4PX         0.00005   0.00001   0.00000   0.00253   0.00202
  12        4PY         0.00002   0.00000   0.00001  -0.00418  -0.00474
  13        4PZ        -0.00002  -0.00001   0.00001  -0.00012  -0.00012
  14        5S          0.00027  -0.00067   0.00082   0.03220   0.22242
  15        5PX        -0.00001   0.00016  -0.00015  -0.00501  -0.00033
  16        5PY        -0.00009   0.00015  -0.00018  -0.00425  -0.04595
  17        5PZ         0.00001  -0.00004   0.00003   0.00330   0.00670
  18        6D 0        0.00000   0.00000   0.00000  -0.01031  -0.00625
  19        6D+1        0.00000   0.00000   0.00000  -0.00176  -0.00141
  20        6D-1        0.00000   0.00000   0.00000  -0.00113   0.00147
  21        6D+2        0.00000   0.00000   0.00000  -0.00116   0.00812
  22        6D-2        0.00000   0.00000   0.00000  -0.00671  -0.01211
  23 2   C  1S          0.00000   0.00000   0.00000  -0.03682   0.02259
  24        2S          0.00000   0.00000   0.00000  -0.05637   0.03471
  25        2PX         0.00000   0.00000   0.00000   0.03231  -0.00653
  26        2PY         0.00000   0.00000   0.00000  -0.01752   0.03552
  27        2PZ         0.00000   0.00000   0.00000  -0.00273  -0.00301
  28        3S          0.00000   0.00000   0.00000   0.14157  -0.08860
  29        3PX         0.00001   0.00000   0.00000   0.04694  -0.01125
  30        3PY        -0.00002   0.00000   0.00000  -0.02667   0.05621
  31        3PZ         0.00000   0.00000   0.00000  -0.00384  -0.00466
  32        4S          0.00017   0.00003  -0.00003   0.05822  -0.05807
  33        4PX         0.00001   0.00000   0.00001   0.00490  -0.00463
  34        4PY        -0.00001   0.00000   0.00001  -0.00104   0.00220
  35        4PZ         0.00000   0.00000  -0.00001  -0.00062   0.00053
  36        5S         -0.00060   0.00056  -0.00057  -0.04168  -0.21108
  37        5PX        -0.00013   0.00010  -0.00009  -0.01339  -0.04605
  38        5PY         0.00008   0.00018  -0.00020  -0.01348  -0.00848
  39        5PZ         0.00001  -0.00003   0.00005   0.00270   0.00673
  40        6D 0        0.00000   0.00000   0.00000  -0.01064   0.00558
  41        6D+1        0.00000   0.00000   0.00000  -0.00219  -0.00106
  42        6D-1        0.00000   0.00000   0.00000  -0.00091   0.00004
  43        6D+2        0.00000   0.00000   0.00000   0.00162   0.00703
  44        6D-2        0.00000   0.00000   0.00000  -0.00700   0.01270
  45 3   C  1S          0.00000   0.00000   0.00000  -0.05453  -0.00248
  46        2S          0.00000   0.00000   0.00000  -0.08339  -0.00381
  47        2PX         0.00000   0.00000   0.00000  -0.03717   0.04313
  48        2PY         0.00000   0.00000   0.00000   0.03294   0.04975
  49        2PZ         0.00000   0.00000   0.00000   0.00181  -0.01173
  50        3S         -0.00001   0.00000  -0.00001   0.21382   0.01018
  51        3PX        -0.00003   0.00001  -0.00001  -0.05505   0.06210
  52        3PY         0.00003  -0.00001   0.00002   0.04841   0.07275
  53        3PZ         0.00000   0.00000   0.00000   0.00278  -0.01699
  54        4S          0.00000   0.00000   0.00003   0.06117   0.00422
  55        4PX        -0.00033  -0.00011   0.00008   0.01210   0.00208
  56        4PY         0.00018   0.00006  -0.00007  -0.00820   0.00618
  57        4PZ         0.00000   0.00000   0.00000  -0.00094  -0.00150
  58        5S          0.00028   0.00014  -0.00028   0.10529  -0.00069
  59        5PX        -0.00035  -0.00010   0.00006  -0.04098   0.03238
  60        5PY         0.00020   0.00013  -0.00025   0.01245   0.02424
  61        5PZ         0.00000  -0.00002   0.00000   0.00752  -0.00511
  62        6D 0        0.00001   0.00000   0.00000  -0.01521  -0.00066
  63        6D+1        0.00000   0.00000   0.00000  -0.00357   0.00346
  64        6D-1        0.00000   0.00000   0.00000  -0.00252  -0.00236
  65        6D+2        0.00000   0.00001  -0.00001   0.00103  -0.02313
  66        6D-2        0.00003   0.00000   0.00000  -0.00342  -0.00207
  67 4   N  1S          0.00000   0.00000   0.00000  -0.06611  -0.07854
  68        2S          0.00000   0.00000   0.00000  -0.10367  -0.12373
  69        2PX         0.00000   0.00000   0.00000  -0.02505  -0.00062
  70        2PY         0.00000   0.00000   0.00000  -0.02111   0.00285
  71        2PZ         0.00000   0.00000   0.00000   0.00696   0.00166
  72        3S          0.00000   0.00000   0.00000   0.28223   0.34377
  73        3PX        -0.00001  -0.00001   0.00001  -0.03592   0.00022
  74        3PY         0.00001   0.00000   0.00000  -0.03012   0.00709
  75        3PZ         0.00000   0.00000   0.00000   0.01004   0.00208
  76        4S         -0.00005   0.00000  -0.00001   0.19357   0.24780
  77        4PX         0.00018   0.00007  -0.00009  -0.01860   0.01356
  78        4PY         0.00000  -0.00001   0.00000  -0.01528   0.00994
  79        4PZ        -0.00001   0.00000  -0.00001   0.00606  -0.00113
  80        5S         -0.00017  -0.00005  -0.00015  -0.08426  -0.16714
  81        5PX         0.00016   0.00000   0.00005  -0.01059   0.06672
  82        5PY        -0.00014  -0.00001   0.00001  -0.00468   0.04094
  83        5PZ         0.00002   0.00003   0.00000  -0.00087  -0.01659
  84        6D 0        0.00000   0.00000   0.00000  -0.00918  -0.00748
  85        6D+1        0.00000   0.00000   0.00000  -0.00249  -0.00151
[...]
    23. CR (   1) C   2                  1.99918   -10.12508  263(v),40(v),255(v),252(g)
                                                    261(v),43(v),113(v)
    24. CR (   1) C   3                  1.99919   -10.14053  263(v),262(v),118(v),254(v)
                                                    257(v)
    25. CR (   1) N   4                  1.99928   -14.24988  42(v),142(v),74(v),77(v)
    26. CR (   1) N   8                  1.99928   -14.26269  75(v),59(v),201(v)
    27. CR (   1) C   9                  1.99928   -10.10214  254(v),258(v),179(v),159(v)
                                                    160(v)
    28. CR (   1) C  10                  1.99935   -10.03709  143(v),194(v)
    29. CR (   1) C  16                  1.99933   -10.12174  257(v),261(v),226(v)
    35. LP (   1) N   8                  1.52175    -0.31895  259(v),253(v),271(v),270(v)
                                                    58(v),78(v),200(v),77(v)
    40. RY*(   1) C   1                  0.00401     1.50829   
    41. RY*(   2) C   1                  0.00240     0.73139   
    42. RY*(   3) C   1                  0.00208     0.87604   
    43. RY*(   4) C   1                  0.00084     1.10444   
    44. RY*(   5) C   1                  0.00061     1.25157   
    45. RY*(   6) C   1                  0.00030     0.64676   
    46. RY*(   7) C   1                  0.00020     2.31820   
    47. RY*(   8) C   1                  0.00014     2.56970   
    48. RY*(   9) C   1                  0.00008     1.63775   
    49. RY*(  10) C   1                  0.00006     1.16365   
    50. RY*(  11) C   1                  0.00004     1.99847   
    51. RY*(  12) C   1                  0.00003     1.71212   
    52. RY*(  13) C   1                  0.00001     4.63023   
    53. RY*(  14) C   1                  0.00000    19.24870   
    54. RY*(  15) C   1                  0.00001     0.66992   
    55. RY*(  16) C   1                  0.00001     2.56143   
    56. RY*(  17) C   1                  0.00001     1.99768   
    57. RY*(   1) C   2                  0.00400     1.45271   
    58. RY*(   2) C   2                  0.00213     0.72379   
    59. RY*(   3) C   2                  0.00180     0.91451   
    60. RY*(   4) C   2                  0.00075     1.09670   
    61. RY*(   5) C   2                  0.00071     1.19815   
    62. RY*(   6) C   2                  0.00034     0.54450   
    63. RY*(   7) C   2                  0.00024     1.26553   
    64. RY*(   8) C   2                  0.00012     2.37874   
    65. RY*(   9) C   2                  0.00009     3.80943   
    66. RY*(  10) C   2                  0.00009     0.53894   
    67. RY*(  11) C   2                  0.00006     1.73591   
    68. RY*(  12) C   2                  0.00003     2.30022   
    69. RY*(  13) C   2                  0.00002     1.89637   
    70. RY*(  14) C   2                  0.00001     1.42777   
    71. RY*(  15) C   2                  0.00000     2.60434   
    72. RY*(  16) C   2                  0.00000    16.62210   
    73. RY*(  17) C   2                  0.00001     5.77281   
    74. RY*(   1) C   3                  0.00531     1.14287   
    75. RY*(   2) C   3                  0.00497     0.86810   
    76. RY*(   3) C   3                  0.00446     0.65227   
    77. RY*(   4) C   3                  0.00240     0.91712   
    78. RY*(   5) C   3                  0.00218     1.23885   
    79. RY*(   6) C   3                  0.00053     1.14399   
    80. RY*(   7) C   3                  0.00035     0.57163   
    81. RY*(   8) C   3                  0.00032     0.91958   
    82. RY*(   9) C   3                  0.00021     2.03675   
    83. RY*(  10) C   3                  0.00014     3.01770   
    84. RY*(  11) C   3                  0.00011     2.13808   
    85. RY*(  12) C   3                  0.00009     1.90005   
    86. RY*(  13) C   3                  0.00007     3.01770   
    87. RY*(  14) C   3                  0.00003     1.77433   
    88. RY*(  15) C   3                  0.00000    20.65490   
    89. RY*(  16) C   3                  0.00001     2.67528   
    90. RY*(  17) C   3                  0.00001     2.12848   
    91. RY*(   1) N   4                  0.00510     0.89949   
    92. RY*(   2) N   4                  0.00328     1.17749   
    93. RY*(   3) N   4                  0.00208     0.87035   
    94. RY*(   4) N   4                  0.00152     1.41254   
    95. RY*(   5) N   4                  0.00117     0.67154   
    96. RY*(   6) N   4                  0.00067     1.84228   
    97. RY*(   7) N   4                  0.00056     1.02365   
    98. RY*(   8) N   4                  0.00040     1.51624   
    99. RY*(   9) N   4                  0.00026     1.46891   
   100. RY*(  10) N   4                  0.00014     2.15797   
   101. RY*(  11) N   4                  0.00011     1.85057   
   102. RY*(  12) N   4                  0.00008     2.50845   
   103. RY*(  13) N   4                  0.00005     3.88207   
   104. RY*(  14) N   4                  0.00001     4.22347   
   105. RY*(  15) N   4                  0.00002     3.13986   
   106. RY*(  16) N   4                  0.00000    34.66315   
   107. RY*(  17) N   4                  0.00000     3.74421   
   108. RY*(   1) H   5                  0.00047     1.72530   
   109. RY*(   2) H   5                  0.00024     1.47719   
   110. RY*(   3) H   5                  0.00017     1.05871   
   111. RY*(   4) H   5                  0.00009     1.88562   
   112. RY*(   5) H   5                  0.00004     2.53647   
   113. RY*(   1) H   6                  0.00041     1.10800   
   114. RY*(   2) H   6                  0.00025     1.54630   
   115. RY*(   3) H   6                  0.00021     1.80288   
   116. RY*(   4) H   6                  0.00005     1.73509   
   117. RY*(   5) H   6                  0.00004     2.47639   
   118. RY*(   1) H   7                  0.00332     1.46084   
   119. RY*(   2) H   7                  0.00047     1.53152   
   120. RY*(   3) H   7                  0.00024     1.60970   
   121. RY*(   4) H   7                  0.00013     2.58565   
   122. RY*(   5) H   7                  0.00008     1.78539   
   123. RY*(   1) N   8                  0.00283     1.68759   
   124. RY*(   2) N   8                  0.00217     0.73314   
   125. RY*(   3) N   8                  0.00141     1.41998   
   126. RY*(   4) N   8                  0.00062     1.86189   
   127. RY*(   5) N   8                  0.00057     1.29135   
   128. RY*(   6) N   8                  0.00044     1.74013   
   129. RY*(   7) N   8                  0.00029     1.99450   
   130. RY*(   8) N   8                  0.00025     1.15978   
   131. RY*(   9) N   8                  0.00013     1.91648   
   132. RY*(  10) N   8                  0.00006     2.56611   
   133. RY*(  11) N   8                  0.00004     2.90635   
   134. RY*(  12) N   8                  0.00002     3.48014   
   135. RY*(  13) N   8                  0.00002     1.62458   
   136. RY*(  14) N   8                  0.00001     0.86672   
   137. RY*(  15) N   8                  0.00000     3.73077   
   138. RY*(  16) N   8                  0.00000    34.71038   
   139. RY*(  17) N   8                  0.00001     3.60726   
   140. RY*(   1) C   9                  0.00494     0.75658   
   141. RY*(   2) C   9                  0.00179     0.90964   
   142. RY*(   3) C   9                  0.00109     1.02258   
   143. RY*(   4) C   9                  0.00073     1.25416   
   144. RY*(   5) C   9                  0.00053     1.04450   
   145. RY*(   6) C   9                  0.00041     1.55276   
   146. RY*(   7) C   9                  0.00036     1.58953   
   147. RY*(   8) C   9                  0.00014     2.11919   
   148. RY*(   9) C   9                  0.00010     1.26037   
   149. RY*(  10) C   9                  0.00005     1.76751   
   150. RY*(  11) C   9                  0.00003     1.78455   
   151. RY*(  12) C   9                  0.00001     0.50191   
   152. RY*(  13) C   9                  0.00001     1.76166   
   153. RY*(  14) C   9                  0.00001     2.88713   
   154. RY*(  15) C   9                  0.00001     4.22437   
   155. RY*(  16) C   9                  0.00001     1.96760   
   156. RY*(  17) C   9                  0.00000    20.64664   
   157. RY*(   1) C  10                  0.00133     0.67176   
   158. RY*(   2) C  10                  0.00112     0.73981   
   159. RY*(   3) C  10                  0.00049     1.29775   
   160. RY*(   4) C  10                  0.00026     0.85793   
   161. RY*(   5) C  10                  0.00009     0.62168   
   162. RY*(   6) C  10                  0.00008     1.64432   
   163. RY*(   7) C  10                  0.00004     1.99921   
   164. RY*(   8) C  10                  0.00005     0.78388   
   165. RY*(   9) C  10                  0.00004     1.17270   
   166. RY*(  10) C  10                  0.00001     2.90117   
   167. RY*(  11) C  10                  0.00000    22.88293   
   168. RY*(  12) C  10                  0.00001     2.92496   
   169. RY*(  13) C  10                  0.00001     1.61769   
   170. RY*(  14) C  10                  0.00000     1.57796   
   171. RY*(  15) C  10                  0.00000     1.32652   
   172. RY*(  16) C  10                  0.00000     2.00541   
   173. RY*(  17) C  10                  0.00000     1.74537   
   174. RY*(   1) H  11                  0.00096     0.83338   
   175. RY*(   2) H  11                  0.00015     1.76989   
   176. RY*(   3) H  11                  0.00012     1.99145   
   177. RY*(   4) H  11                  0.00008     1.65246   
   178. RY*(   5) H  11                  0.00004     2.69850   
   179. RY*(   1) H  12                  0.00177     0.95945   
   180. RY*(   2) H  12                  0.00018     1.75848   
   181. RY*(   3) H  12                  0.00012     1.87544   
   182. RY*(   4) H  12                  0.00009     1.99449   
   183. RY*(   5) H  12                  0.00004     2.43678   
   184. RY*(   1) H  13                  0.00056     0.92041   
   185. RY*(   2) H  13                  0.00014     1.58870   
   186. RY*(   3) H  13                  0.00010     1.84656   
   187. RY*(   4) H  13                  0.00007     1.99165   
   188. RY*(   5) H  13                  0.00002     2.58265   
   189. RY*(   1) H  14                  0.00092     0.68969   
   190. RY*(   2) H  14                  0.00019     1.88462   
   191. RY*(   3) H  14                  0.00012     1.79645   
   192. RY*(   4) H  14                  0.00008     1.78495   
   193. RY*(   5) H  14                  0.00003     2.70221   
   194. RY*(   1) H  15                  0.00120     0.89298   
   195. RY*(   2) H  15                  0.00013     1.82485   
   196. RY*(   3) H  15                  0.00011     1.78804   
   197. RY*(   4) H  15                  0.00008     1.78438   
   198. RY*(   5) H  15                  0.00003     2.68482   
   199. RY*(   1) C  16                  0.00264     0.72422   
   200. RY*(   2) C  16                  0.00140     0.88026   
   201. RY*(   3) C  16                  0.00063     1.09400   
   202. RY*(   4) C  16                  0.00023     0.44512   
   203. RY*(   5) C  16                  0.00018     0.66039   
   204. RY*(   6) C  16                  0.00013     0.34454   
   205. RY*(   7) C  16                  0.00008     1.28938   
   206. RY*(   8) C  16                  0.00007     2.58717   
   207. RY*(   9) C  16                  0.00004     1.84817   
   208. RY*(  10) C  16                  0.00002     2.04849   
   209. RY*(  11) C  16                  0.00000     0.99106   
   210. RY*(  12) C  16                  0.00000     2.88089   
   211. RY*(  13) C  16                  0.00000     1.92554   
   212. RY*(  14) C  16                  0.00000    22.50585   
   213. RY*(  15) C  16                  0.00000     2.63297   
   214. RY*(  16) C  16                  0.00001     0.93394   
   215. RY*(  17) C  16                  0.00000     1.94943   
   216. RY*(   1) H  17                  0.00045     0.66808   
   217. RY*(   2) H  17                  0.00015     1.85535   
   218. RY*(   3) H  17                  0.00012     1.74305   
   219. RY*(   4) H  17                  0.00006     1.87493   
   220. RY*(   5) H  17                  0.00004     2.55902   
   221. RY*(   1) H  18                  0.00045     0.65975   
   222. RY*(   2) H  18                  0.00015     1.83508   
   223. RY*(   3) H  18                  0.00012     1.75037   
   224. RY*(   4) H  18                  0.00007     1.92005   
   225. RY*(   5) H  18                  0.00004     2.54857   
   226. RY*(   1) H  19                  0.00065     0.76193   
   227. RY*(   2) H  19                  0.00013     1.93475   
   228. RY*(   3) H  19                  0.00010     1.70373   
   229. RY*(   4) H  19                  0.00005     2.03072   
   230. RY*(   5) H  19                  0.00003     2.29541   
   252. BD*(   1) C   1 - C   2          0.00868     0.53816   
   253. BD*(   2) C   1 - C   2          0.25858    -0.03552  259(v),44(g),61(g),58(g)
   254. BD*(   1) C   1 - N   4          0.02531     0.38430   
   255. BD*(   1) C   1 - H   5          0.00981     0.37349   
   256. BD*(   1) C   2 - H   6          0.00976     0.36761   
   257. BD*(   1) C   2 - N   8          0.02607     0.37583   
   258. BD*(   1) C   3 - N   4          0.02030     0.45087   
   259. BD*(   2) C   3 - N   4          0.46059    -0.07359  253(v),76(g),264(v),95(g)
                                                    80(g),41(v)
   260. BD*(   1) C   3 - H   7          0.10928     0.35988  257(v),118(g),254(v),261(g)
                                                    256(r),272(r),255(r),262(v)
                                                    263(v),77(g),204(r),258(g)
                                                    231(r),232(r),235(r),236(r)
   261. BD*(   1) C   3 - N   8          0.02240     0.44375   
   262. BD*(   1) N   4 - C   9          0.03157     0.27947   
   263. BD*(   1) N   8 - C  16          0.01521     0.27303   
   264. BD*(   1) C   9 - C  10          0.00849     0.36622   
   265. BD*(   1) C   9 - H  11          0.01500     0.36306   
   266. BD*(   1) C   9 - H  12          0.01789     0.39696   
   267. BD*(   1) C  10 - H  13          0.00416     0.38947   
   268. BD*(   1) C  10 - H  14          0.00734     0.38009   
   269. BD*(   1) C  10 - H  15          0.00833     0.40693   
   270. BD*(   1) C  16 - H  17          0.00866     0.33951   
   271. BD*(   1) C  16 - H  18          0.00930     0.33937   
   272. BD*(   1) C  16 - H  19          0.00280     0.35422   
       -------------------------------
              Total Lewis   58.96764  ( 98.0356%)
        Valence non-Lewis    1.07952  (  1.7947%)
        Rydberg non-Lewis    0.10204  (  0.1696%)
       -------------------------------
            Total unit  1   60.14921  (100.0000%)
           Charge unit  1    0.85079

 Molecular unit  2  (Cl)
    30. CR (   1)Cl  20                  2.00000  -100.74540  260(r)
    31. CR (   2)Cl  20                  1.99998    -9.79875  260(r),118(r)
    32. CR (   3)Cl  20                  2.00000    -7.06477  260(r)
    33. CR (   4)Cl  20                  2.00000    -7.06425   
    34. CR (   5)Cl  20                  2.00000    -7.06427   
    36. LP (   1)Cl  20                  1.99886    -0.70463  260(r),118(r),266(r)
    37. LP (   2)Cl  20                  1.98657    -0.19703  259(r),269(r),260(r),266(r)
                                                    265(r),268(r),75(r),261(r)
    38. LP (   3)Cl  20                  1.98218    -0.19807  266(r),259(r),265(r),261(r)
                                                    76(r),120(r)
    39. LP (   4)Cl  20                  1.88239    -0.27716  260(r),119(r),261(r),266(r)
                                                    118(r),74(r),265(r),75(r)
                                                    259(r),87(r)
   231. RY*(   1)Cl  20                  0.00033     0.99037   
   232. RY*(   2)Cl  20                  0.00018     0.78865   
   233. RY*(   3)Cl  20                  0.00016     0.41258   
   234. RY*(   4)Cl  20                  0.00008     0.41638   
   235. RY*(   5)Cl  20                  0.00003     1.01405   
   236. RY*(   6)Cl  20                  0.00001     0.58143   
   237. RY*(   7)Cl  20                  0.00000     4.36133   
   238. RY*(   8)Cl  20                  0.00000    23.64533   
   239. RY*(   9)Cl  20                  0.00000    17.55313   
   240. RY*(  10)Cl  20                  0.00001     0.98627   
   241. RY*(  11)Cl  20                  0.00000     4.56366   
   242. RY*(  12)Cl  20                  0.00000    23.66903   
   243. RY*(  13)Cl  20                  0.00000   207.20382   
   244. RY*(  14)Cl  20                  0.00000     0.59703   
   245. RY*(  15)Cl  20                  0.00000     4.57389   
   246. RY*(  16)Cl  20                  0.00000    23.63915   
   247. RY*(  17)Cl  20                  0.00001     0.95763   
   248. RY*(  18)Cl  20                  0.00000     0.97961   
   249. RY*(  19)Cl  20                  0.00000     0.92950   
   250. RY*(  20)Cl  20                  0.00001     1.00933   
   251. RY*(  21)Cl  20                  0.00000     0.98543   
       -------------------------------
              Total Lewis   17.84997  ( 99.9954%)
        Valence non-Lewis    0.00000  (  0.0000%)
        Rydberg non-Lewis    0.00082  (  0.0046%)
       -------------------------------
            Total unit  2   17.85079  (100.0000%)
           Charge unit  2   -0.85079
 1\1\GINC-CX1-9-15-3\SP\RB3LYP\6-311+G(d,p)\C6H11Cl1N2\CJS14\20-Apr-201
 5\0\\# pop(nbo,full) GFInput b3lyp/6-311+g(d,p) geom=checkpoint integr
 al=grid=ultrafine scf=conver=9 empiricaldispersion=gd3bj\\Emim+ (optim
 ised with b3lyp+gd3bj / aug-cc-pvtz) and Cl- in the front-ethyl positi
 on created on; Thu Apr 16 19:11:58 BST 2015, from; CJS1_emim-cl_FE_ini
 t.com created on; Sun Apr 19 10:11:25 BST 2015, from; CJS1_emim-cl_FE_
 6-311+g-d-p-_gd3bj_opt-modredundant_difrz_err.com created on; Mon Apr 
 20 15:19:46 BST 2015, from; CJS1_emim-cl_FE_6-311+g-d-p-_gd3bj_opt-mod
 redundant_unfrz.com\\0,1\C,0,-0.355578329,1.8443306824,-0.1633009732\C
 ,0,-1.6838649555,1.6931010716,0.0899527787\C,0,-0.799916843,-0.3305387
 254,-0.1820100338\N,0,0.1708819228,0.5760222028,-0.3332895703\H,0,0.24
 89602169,2.7310529228,-0.2403962301\H,0,-2.4561358414,2.4203615494,0.2
 700997362\H,0,-0.5989470894,-1.4326327967,-0.2221159117\N,0,-1.9372637
 547,0.3291901306,0.0754352255\C,0,1.5920120551,0.2287720394,-0.5539211
 709\C,0,2.3448566518,0.1024219285,0.7636654612\H,0,2.0079507061,1.0048
 466848,-1.1989871998\H,0,1.5963979869,-0.7289292021,-1.0761224186\H,0,
 3.3953130215,-0.1127330313,0.5570560239\H,0,2.2894763359,1.0215767003,
 1.3535513662\H,0,1.9396993031,-0.7333421659,1.336590022\C,0,-3.2301369
 788,-0.3165013923,0.2972907632\H,0,-3.6245068199,-0.0264259588,1.27136
 22023\H,0,-3.9301161469,-0.0281964075,-0.4875536328\H,0,-3.079708978,-
 1.393960777,0.273466525\Cl,0,0.5035852965,-3.0881820758,-0.220264003\\
 Version=ES64L-G09RevD.01\State=1-A\HF=-805.1171749\RMSD=5.202e-10\Dipo
 le=-1.8002935,4.5559441,0.2430926\Quadrupole=13.5411928,-13.9298849,0.
 3886921,5.222515,-1.6034864,-1.5807422\PG=C01 [X(C6H11Cl1N2)]\\@


    THE DOUGHNUT CREED
 AS YOU RAMBLE ON THROUGH LIFE, BROTHER
 WHATEVER BE YOUR GOAL
 KEEP YOUR EYE UPON THE DOUGHNUT
 AND NOT UPON THE HOLE.
 Job cpu time:       0 days  0 hours  6 minutes 35.4 seconds.
 File lengths (MBytes):  RWF=     29 Int=      0 D2E=      0 Chk=      6 Scr=      1
 Normal termination of Gaussian 09 at Mon Apr 20 15:26:47 2015.
