 Entering Gaussian System, Link 0=g09
 Input=/work/cjs14/CJS1_emim-cl_F_6-311+g-d-p-_gd3bj_pop-nbo-full-_unfrz.com
 Output=/work/cjs14/CJS1_emim-cl_F_6-311+g-d-p-_gd3bj_pop-nbo-full-_unfrz.log
 Initial command:
 /apps/gaussian/g09_d01/g09/l1.exe /tmp/pbs.9416798.cx1b/Gau-1848.inp -scrdir=/tmp/pbs.9416798.cx1b/
 Entering Link 1 = /apps/gaussian/g09_d01/g09/l1.exe PID=      1849.
  
 Copyright (c) 1988,1990,1992,1993,1995,1998,2003,2009,2013,
            Gaussian, Inc.  All Rights Reserved.
  
 This is part of the Gaussian(R) 09 program.  It is based on
 the Gaussian(R) 03 system (copyright 2003, Gaussian, Inc.),
 the Gaussian(R) 98 system (copyright 1998, Gaussian, Inc.),
 the Gaussian(R) 94 system (copyright 1995, Gaussian, Inc.),
 the Gaussian 92(TM) system (copyright 1992, Gaussian, Inc.),
 the Gaussian 90(TM) system (copyright 1990, Gaussian, Inc.),
 the Gaussian 88(TM) system (copyright 1988, Gaussian, Inc.),
 the Gaussian 86(TM) system (copyright 1986, Carnegie Mellon
 University), and the Gaussian 82(TM) system (copyright 1983,
 Carnegie Mellon University). Gaussian is a federally registered
 trademark of Gaussian, Inc.
  
 This software contains proprietary and confidential information,
 including trade secrets, belonging to Gaussian, Inc.
  
 This software is provided under written license and may be
 used, copied, transmitted, or stored only in accord with that
 written license.
  
 The following legend is applicable only to US Government
 contracts under FAR:
  
                    RESTRICTED RIGHTS LEGEND
  
 Use, reproduction and disclosure by the US Government is
 subject to restrictions as set forth in subparagraphs (a)
 and (c) of the Commercial Computer Software - Restricted
 Rights clause in FAR 52.227-19.
  
 Gaussian, Inc.
 340 Quinnipiac St., Bldg. 40, Wallingford CT 06492
  
  
 ---------------------------------------------------------------
 Warning -- This program may not be used in any manner that
 competes with the business of Gaussian, Inc. or will provide
 assistance to any competitor of Gaussian, Inc.  The licensee
 of this program is prohibited from giving any competitor of
 Gaussian, Inc. access to this program.  By using this program,
 the user acknowledges that Gaussian, Inc. is engaged in the
 business of creating and licensing software in the field of
 computational chemistry and represents and warrants to the
 licensee that it is not a competitor of Gaussian, Inc. and that
 it will not use this program in any manner prohibited above.
 ---------------------------------------------------------------
  

 Cite this work as:
 Gaussian 09, Revision D.01,
 M. J. Frisch, G. W. Trucks, H. B. Schlegel, G. E. Scuseria, 
 M. A. Robb, J. R. Cheeseman, G. Scalmani, V. Barone, B. Mennucci, 
 G. A. Petersson, H. Nakatsuji, M. Caricato, X. Li, H. P. Hratchian, 
 A. F. Izmaylov, J. Bloino, G. Zheng, J. L. Sonnenberg, M. Hada, 
 M. Ehara, K. Toyota, R. Fukuda, J. Hasegawa, M. Ishida, T. Nakajima, 
 Y. Honda, O. Kitao, H. Nakai, T. Vreven, J. A. Montgomery, Jr., 
 J. E. Peralta, F. Ogliaro, M. Bearpark, J. J. Heyd, E. Brothers, 
 K. N. Kudin, V. N. Staroverov, T. Keith, R. Kobayashi, J. Normand, 
 K. Raghavachari, A. Rendell, J. C. Burant, S. S. Iyengar, J. Tomasi, 
 M. Cossi, N. Rega, J. M. Millam, M. Klene, J. E. Knox, J. B. Cross, 
 V. Bakken, C. Adamo, J. Jaramillo, R. Gomperts, R. E. Stratmann, 
 O. Yazyev, A. J. Austin, R. Cammi, C. Pomelli, J. W. Ochterski, 
 R. L. Martin, K. Morokuma, V. G. Zakrzewski, G. A. Voth, 
 P. Salvador, J. J. Dannenberg, S. Dapprich, A. D. Daniels, 
 O. Farkas, J. B. Foresman, J. V. Ortiz, J. Cioslowski, 
 and D. J. Fox, Gaussian, Inc., Wallingford CT, 2013.
 
 ******************************************
 Gaussian 09:  ES64L-G09RevD.01 24-Apr-2013
                20-Apr-2015 
 ******************************************
 %nprocshared=8
 Will use up to    8 processors via shared memory.
 %mem=15000MB
 %chk=CJS1_emim-cl_F_6-311+g-d-p-_gd3bj_pop-nbo-full-_unfrz.chk
 ----------------------------------------------------------------------
 # pop(nbo,full) GFInput b3lyp/6-311+g(d,p) geom=checkpoint integral=gr
 id=ultrafine scf=conver=9 empiricaldispersion=gd3bj
 ----------------------------------------------------------------------
 1/29=2,38=1/1;
 2/12=2,40=1/2;
 3/5=4,6=6,7=111,11=2,14=-4,16=1,24=10,25=1,30=1,74=-5,75=-5,124=41/1,2,3;
 4//1;
 5/5=2,6=9,38=5/2;
 6/7=3,28=1,40=1/1,7;
 99/5=1,9=1/99;
 ----------------------------------------------------------------------
 Emim+ (optimised with b3lyp+gd3bj / aug-cc-pvtz) and Cl- in the front 
 position created on; Thu Apr 16 19:11:59 BST 2015, from; CJS1_emim-cl_
 F_init.com created on; Fri Apr 17 20:54:17 BST 2015, from; CJS1_emim-c
 l_F_6-311+g-d-p-_gd3bj_opt-modredundant_difrz.com created on; Mon Apr 
 20 15:19:46 BST 2015, from; CJS1_emim-cl_F_6-311+g-d-p-_gd3bj_opt-modr
 edundant_unfrz.com
 ----------------------------------------------------------------------
 Structure from the checkpoint file:  "CJS1_emim-cl_F_6-311+g-d-p-_gd3bj_pop-nbo-full-_unfrz.chk"
 Charge =  0 Multiplicity = 1
 Redundant internal coordinates found in file.
 C,0,-0.4554378524,1.9330544864,-0.505844945
 C,0,-1.7814012224,1.7002097089,-0.3063238643
 C,0,-0.6911790879,-0.1964550265,0.0813756662
 N,0,0.2047476866,0.7395307073,-0.2553486387
 H,0,0.0668673799,2.828376291,-0.7942858713
 H,0,-2.631188034,2.3557123448,-0.3832240179
 H,0,-0.537660432,-1.2770301498,0.3406700322
 N,0,-1.9022629826,0.3696289383,0.0569550683
 C,0,1.653834887,0.4938309078,-0.4011893888
 C,0,2.1712897996,-0.5075338324,0.6229828047
 H,0,2.1429892065,1.4631207205,-0.2913089407
 H,0,1.8305892174,0.1400830549,-1.4198219644
 H,0,3.2433016924,-0.6472610431,0.4697707283
 H,0,2.012606803,-0.1422560633,1.6398521556
 H,0,1.6825792399,-1.4801261475,0.5294772913
 C,0,-3.1360221018,-0.3571322389,0.3827000724
 H,0,-3.6105924702,0.1035760977,1.2492402382
 H,0,-3.8094384834,-0.3283677701,-0.4739244042
 H,0,-2.8577674247,-1.3893382126,0.6092254073
 Cl,0,-0.8353218109,-3.1612729734,0.8252325109
 Recover connectivity data from disk.
                          Input orientation:                          
 ---------------------------------------------------------------------
 Center     Atomic      Atomic             Coordinates (Angstroms)
 Number     Number       Type             X           Y           Z
 ---------------------------------------------------------------------
      1          6           0       -0.455438    1.933054   -0.505845
      2          6           0       -1.781401    1.700210   -0.306324
      3          6           0       -0.691179   -0.196455    0.081376
      4          7           0        0.204748    0.739531   -0.255349
      5          1           0        0.066867    2.828376   -0.794286
      6          1           0       -2.631188    2.355712   -0.383224
      7          1           0       -0.537660   -1.277030    0.340670
      8          7           0       -1.902263    0.369629    0.056955
      9          6           0        1.653835    0.493831   -0.401189
     10          6           0        2.171290   -0.507534    0.622983
     11          1           0        2.142989    1.463121   -0.291309
     12          1           0        1.830589    0.140083   -1.419822
     13          1           0        3.243302   -0.647261    0.469771
     14          1           0        2.012607   -0.142256    1.639852
     15          1           0        1.682579   -1.480126    0.529477
     16          6           0       -3.136022   -0.357132    0.382700
     17          1           0       -3.610592    0.103576    1.249240
     18          1           0       -3.809438   -0.328368   -0.473924
     19          1           0       -2.857767   -1.389338    0.609225
     20         17           0       -0.835322   -3.161273    0.825233
 ---------------------------------------------------------------------
                    Distance matrix (angstroms):
                    1          2          3          4          5
     1  C    0.000000
     2  C    1.360957   0.000000
     3  C    2.221534   2.221763   0.000000
     4  N    1.386756   2.206873   1.338707   0.000000
     5  H    1.075919   2.219676   3.238985   2.161652   0.000000
     6  H    2.219812   1.075981   3.239297   3.266638   2.769817
     7  H    3.320842   3.290813   1.121804   2.230006   4.302086
     8  N    2.203258   1.384566   1.337076   2.161910   3.263054
     9  C    2.555650   3.642142   2.491677   1.476987   2.850104
    10  C    3.759045   4.621851   2.929819   2.488760   4.191126
    11  H    2.649280   3.931574   3.305389   2.069216   2.535190
    12  H    3.045656   4.089052   2.954009   2.087749   3.275505
    13  H    4.614166   5.600052   3.979223   3.417865   4.875206
    14  H    3.873264   4.645081   3.121257   2.763637   4.305297
    15  H    4.158463   4.776218   2.735569   2.779715   4.788117
    16  C    3.635932   2.557813   2.468577   3.573586   4.668111
    17  H    4.047507   2.883567   3.158623   4.150307   5.012409
    18  H    4.045290   2.873352   3.170063   4.159552   5.009332
    19  H    4.248866   3.397367   2.528972   3.828651   5.320944
    20  Cl   5.279039   5.080305   3.060105   4.179195   6.269983
                    6          7          8          9         10
     6  H    0.000000
     7  H    4.254844   0.000000
     8  N    2.160930   2.157341   0.000000
     9  C    4.672082   2.913581   3.587639   0.000000
    10  C    5.681058   2.830236   4.205191   1.522964   0.000000
    11  H    4.857771   3.885062   4.204887   1.091269   2.172604
    12  H    5.088320   3.273553   4.020914   1.092699   2.169916
    13  H    6.652449   3.835225   5.261304   2.141744   1.091882
    14  H    5.647788   3.078871   4.253680   2.167758   1.092077
    15  H    5.844251   2.237490   4.061522   2.182538   1.092482
    16  C    2.863743   2.756712   1.468487   4.927611   5.314877
    17  H    2.948947   3.489195   2.100171   5.530860   5.847719
    18  H    2.932710   3.502578   2.099131   5.525274   6.083126
    19  H    3.880940   2.338297   2.076525   4.992176   5.105799
    20  Cl   5.926435   1.968191   3.767742   4.589095   4.015339
                   11         12         13         14         15
    11  H    0.000000
    12  H    1.766795   0.000000
    13  H    2.498728   2.487213   0.000000
    14  H    2.514680   3.078060   1.771646   0.000000
    15  H    3.090044   2.539046   1.770052   1.769674   0.000000
    16  C    5.624551   5.306933   6.386511   5.304242   4.949907
    17  H    6.109448   6.060667   6.938818   5.642108   5.571700
    18  H    6.218856   5.737951   7.122738   6.196685   5.700493
    19  H    5.827096   5.332621   6.147615   5.132051   4.541954
    20  Cl   5.612666   4.800657   4.804350   4.229511   3.041965
                   16         17         18         19         20
    16  C    0.000000
    17  H    1.090120   0.000000
    18  H    1.090010   1.787571   0.000000
    19  H    1.092789   1.790295   1.790126   0.000000
    20  Cl   3.654075   4.305943   4.307961   2.697536   0.000000
 Stoichiometry    C6H11ClN2
 Framework group  C1[X(C6H11ClN2)]
 Deg. of freedom    54
 Full point group                 C1      NOp   1
 Largest Abelian subgroup         C1      NOp   1
 Largest concise Abelian subgroup C1      NOp   1
                         Standard orientation:                         
 ---------------------------------------------------------------------
 Center     Atomic      Atomic             Coordinates (Angstroms)
 Number     Number       Type             X           Y           Z
 ---------------------------------------------------------------------
      1          6           0        2.327727    0.420335   -0.065146
      2          6           0        1.775206    1.659250    0.044475
      3          6           0        0.119099    0.181472   -0.054084
      4          7           0        1.278408   -0.484578   -0.121307
      5          1           0        3.356907    0.108917   -0.102679
      6          1           0        2.232402    2.629884    0.125572
      7          1           0       -0.933650   -0.205091   -0.081146
      8          7           0        0.401741    1.484313    0.048330
      9          6           0        1.392128   -1.946174   -0.301020
     10          6           0        0.294948   -2.701488    0.437300
     11          1           0        2.381701   -2.225210    0.064700
     12          1           0        1.357783   -2.153345   -1.373351
     13          1           0        0.430350   -3.772178    0.271482
     14          1           0        0.344457   -2.509488    1.511226
     15          1           0       -0.701850   -2.424215    0.086545
     16          6           0       -0.629274    2.524709    0.153397
     17          1           0       -0.518306    3.051190    1.101482
     18          1           0       -0.525241    3.222029   -0.677893
     19          1           0       -1.601500    2.027691    0.109364
     20         17           0       -2.897829   -0.328056   -0.106705
 ---------------------------------------------------------------------
 Rotational constants (GHZ):      1.4043398      1.0307122      0.6093605
 Standard basis: 6-311+G(d,p) (5D, 7F)
 AO basis set in the form of general basis input (Overlap normalization):
      1 0
 S   6 1.00       0.000000000000
      0.4563240000D+04  0.1966650249D-02
      0.6820240000D+03  0.1523060193D-01
      0.1549730000D+03  0.7612690966D-01
      0.4445530000D+02  0.2608010331D+00
      0.1302900000D+02  0.6164620782D+00
      0.1827730000D+01  0.2210060280D+00
 SP   3 1.00       0.000000000000
      0.2096420000D+02  0.1146600807D+00  0.4024869267D-01
      0.4803310000D+01  0.9199996477D+00  0.2375939567D+00
      0.1459330000D+01 -0.3030682134D-02  0.8158538515D+00
 SP   1 1.00       0.000000000000
      0.4834560000D+00  0.1000000000D+01  0.1000000000D+01
 SP   1 1.00       0.000000000000
      0.1455850000D+00  0.1000000000D+01  0.1000000000D+01
 SP   1 1.00       0.000000000000
      0.4380000000D-01  0.1000000000D+01  0.1000000000D+01
 D   1 1.00       0.000000000000
      0.6260000000D+00  0.1000000000D+01
 ****
      2 0
 S   6 1.00       0.000000000000
      0.4563240000D+04  0.1966650249D-02
      0.6820240000D+03  0.1523060193D-01
      0.1549730000D+03  0.7612690966D-01
      0.4445530000D+02  0.2608010331D+00
      0.1302900000D+02  0.6164620782D+00
      0.1827730000D+01  0.2210060280D+00
 SP   3 1.00       0.000000000000
      0.2096420000D+02  0.1146600807D+00  0.4024869267D-01
      0.4803310000D+01  0.9199996477D+00  0.2375939567D+00
      0.1459330000D+01 -0.3030682134D-02  0.8158538515D+00
 SP   1 1.00       0.000000000000
      0.4834560000D+00  0.1000000000D+01  0.1000000000D+01
 SP   1 1.00       0.000000000000
      0.1455850000D+00  0.1000000000D+01  0.1000000000D+01
 SP   1 1.00       0.000000000000
      0.4380000000D-01  0.1000000000D+01  0.1000000000D+01
 D   1 1.00       0.000000000000
      0.6260000000D+00  0.1000000000D+01
 ****
      3 0
 S   6 1.00       0.000000000000
      0.4563240000D+04  0.1966650249D-02
      0.6820240000D+03  0.1523060193D-01
      0.1549730000D+03  0.7612690966D-01
      0.4445530000D+02  0.2608010331D+00
      0.1302900000D+02  0.6164620782D+00
      0.1827730000D+01  0.2210060280D+00
 SP   3 1.00       0.000000000000
      0.2096420000D+02  0.1146600807D+00  0.4024869267D-01
      0.4803310000D+01  0.9199996477D+00  0.2375939567D+00
      0.1459330000D+01 -0.3030682134D-02  0.8158538515D+00
 SP   1 1.00       0.000000000000
      0.4834560000D+00  0.1000000000D+01  0.1000000000D+01
 SP   1 1.00       0.000000000000
      0.1455850000D+00  0.1000000000D+01  0.1000000000D+01
 SP   1 1.00       0.000000000000
      0.4380000000D-01  0.1000000000D+01  0.1000000000D+01
 D   1 1.00       0.000000000000
      0.6260000000D+00  0.1000000000D+01
 ****
      4 0
 S   6 1.00       0.000000000000
      0.6293480000D+04  0.1969788147D-02
      0.9490440000D+03  0.1496128592D-01
      0.2187760000D+03  0.7350053084D-01
      0.6369160000D+02  0.2489367658D+00
      0.1882820000D+02  0.6024594331D+00
      0.2720230000D+01  0.2562017589D+00
 SP   3 1.00       0.000000000000
      0.3063310000D+02  0.1119060795D+00  0.3831191864D-01
      0.7026140000D+01  0.9216666549D+00  0.2374031155D+00
      0.2112050000D+01 -0.2569191826D-02  0.8175923978D+00
 SP   1 1.00       0.000000000000
      0.6840090000D+00  0.1000000000D+01  0.1000000000D+01
 SP   1 1.00       0.000000000000
      0.2008780000D+00  0.1000000000D+01  0.1000000000D+01
 SP   1 1.00       0.000000000000
      0.6390000000D-01  0.1000000000D+01  0.1000000000D+01
 D   1 1.00       0.000000000000
      0.9130000000D+00  0.1000000000D+01
 ****
      5 0
 S   3 1.00       0.000000000000
      0.3386500000D+02  0.2549381454D-01
      0.5094790000D+01  0.1903731086D+00
      0.1158790000D+01  0.8521614860D+00
 S   1 1.00       0.000000000000
      0.3258400000D+00  0.1000000000D+01
 S   1 1.00       0.000000000000
      0.1027410000D+00  0.1000000000D+01
 P   1 1.00       0.000000000000
      0.7500000000D+00  0.1000000000D+01
 ****
      6 0
 S   3 1.00       0.000000000000
      0.3386500000D+02  0.2549381454D-01
      0.5094790000D+01  0.1903731086D+00
      0.1158790000D+01  0.8521614860D+00
 S   1 1.00       0.000000000000
      0.3258400000D+00  0.1000000000D+01
 S   1 1.00       0.000000000000
      0.1027410000D+00  0.1000000000D+01
 P   1 1.00       0.000000000000
      0.7500000000D+00  0.1000000000D+01
 ****
      7 0
 S   3 1.00       0.000000000000
      0.3386500000D+02  0.2549381454D-01
      0.5094790000D+01  0.1903731086D+00
      0.1158790000D+01  0.8521614860D+00
 S   1 1.00       0.000000000000
      0.3258400000D+00  0.1000000000D+01
 S   1 1.00       0.000000000000
      0.1027410000D+00  0.1000000000D+01
 P   1 1.00       0.000000000000
      0.7500000000D+00  0.1000000000D+01
 ****
      8 0
 S   6 1.00       0.000000000000
      0.6293480000D+04  0.1969788147D-02
      0.9490440000D+03  0.1496128592D-01
      0.2187760000D+03  0.7350053084D-01
      0.6369160000D+02  0.2489367658D+00
      0.1882820000D+02  0.6024594331D+00
      0.2720230000D+01  0.2562017589D+00
 SP   3 1.00       0.000000000000
      0.3063310000D+02  0.1119060795D+00  0.3831191864D-01
      0.7026140000D+01  0.9216666549D+00  0.2374031155D+00
      0.2112050000D+01 -0.2569191826D-02  0.8175923978D+00
 SP   1 1.00       0.000000000000
      0.6840090000D+00  0.1000000000D+01  0.1000000000D+01
 SP   1 1.00       0.000000000000
      0.2008780000D+00  0.1000000000D+01  0.1000000000D+01
 SP   1 1.00       0.000000000000
      0.6390000000D-01  0.1000000000D+01  0.1000000000D+01
 D   1 1.00       0.000000000000
      0.9130000000D+00  0.1000000000D+01
 ****
      9 0
 S   6 1.00       0.000000000000
      0.4563240000D+04  0.1966650249D-02
      0.6820240000D+03  0.1523060193D-01
      0.1549730000D+03  0.7612690966D-01
      0.4445530000D+02  0.2608010331D+00
      0.1302900000D+02  0.6164620782D+00
      0.1827730000D+01  0.2210060280D+00
 SP   3 1.00       0.000000000000
      0.2096420000D+02  0.1146600807D+00  0.4024869267D-01
      0.4803310000D+01  0.9199996477D+00  0.2375939567D+00
      0.1459330000D+01 -0.3030682134D-02  0.8158538515D+00
 SP   1 1.00       0.000000000000
      0.4834560000D+00  0.1000000000D+01  0.1000000000D+01
 SP   1 1.00       0.000000000000
      0.1455850000D+00  0.1000000000D+01  0.1000000000D+01
 SP   1 1.00       0.000000000000
      0.4380000000D-01  0.1000000000D+01  0.1000000000D+01
 D   1 1.00       0.000000000000
      0.6260000000D+00  0.1000000000D+01
 ****
     10 0
 S   6 1.00       0.000000000000
      0.4563240000D+04  0.1966650249D-02
      0.6820240000D+03  0.1523060193D-01
      0.1549730000D+03  0.7612690966D-01
      0.4445530000D+02  0.2608010331D+00
      0.1302900000D+02  0.6164620782D+00
      0.1827730000D+01  0.2210060280D+00
 SP   3 1.00       0.000000000000
      0.2096420000D+02  0.1146600807D+00  0.4024869267D-01
      0.4803310000D+01  0.9199996477D+00  0.2375939567D+00
      0.1459330000D+01 -0.3030682134D-02  0.8158538515D+00
 SP   1 1.00       0.000000000000
      0.4834560000D+00  0.1000000000D+01  0.1000000000D+01
 SP   1 1.00       0.000000000000
      0.1455850000D+00  0.1000000000D+01  0.1000000000D+01
 SP   1 1.00       0.000000000000
      0.4380000000D-01  0.1000000000D+01  0.1000000000D+01
 D   1 1.00       0.000000000000
      0.6260000000D+00  0.1000000000D+01
 ****
     11 0
 S   3 1.00       0.000000000000
      0.3386500000D+02  0.2549381454D-01
      0.5094790000D+01  0.1903731086D+00
      0.1158790000D+01  0.8521614860D+00
 S   1 1.00       0.000000000000
      0.3258400000D+00  0.1000000000D+01
 S   1 1.00       0.000000000000
      0.1027410000D+00  0.1000000000D+01
 P   1 1.00       0.000000000000
      0.7500000000D+00  0.1000000000D+01
 ****
     12 0
 S   3 1.00       0.000000000000
      0.3386500000D+02  0.2549381454D-01
      0.5094790000D+01  0.1903731086D+00
      0.1158790000D+01  0.8521614860D+00
 S   1 1.00       0.000000000000
      0.3258400000D+00  0.1000000000D+01
 S   1 1.00       0.000000000000
      0.1027410000D+00  0.1000000000D+01
 P   1 1.00       0.000000000000
      0.7500000000D+00  0.1000000000D+01
 ****
     13 0
 S   3 1.00       0.000000000000
      0.3386500000D+02  0.2549381454D-01
      0.5094790000D+01  0.1903731086D+00
      0.1158790000D+01  0.8521614860D+00
 S   1 1.00       0.000000000000
      0.3258400000D+00  0.1000000000D+01
 S   1 1.00       0.000000000000
      0.1027410000D+00  0.1000000000D+01
 P   1 1.00       0.000000000000
      0.7500000000D+00  0.1000000000D+01
 ****
     14 0
 S   3 1.00       0.000000000000
      0.3386500000D+02  0.2549381454D-01
      0.5094790000D+01  0.1903731086D+00
      0.1158790000D+01  0.8521614860D+00
 S   1 1.00       0.000000000000
      0.3258400000D+00  0.1000000000D+01
 S   1 1.00       0.000000000000
      0.1027410000D+00  0.1000000000D+01
 P   1 1.00       0.000000000000
      0.7500000000D+00  0.1000000000D+01
 ****
     15 0
 S   3 1.00       0.000000000000
      0.3386500000D+02  0.2549381454D-01
      0.5094790000D+01  0.1903731086D+00
      0.1158790000D+01  0.8521614860D+00
 S   1 1.00       0.000000000000
      0.3258400000D+00  0.1000000000D+01
 S   1 1.00       0.000000000000
      0.1027410000D+00  0.1000000000D+01
 P   1 1.00       0.000000000000
      0.7500000000D+00  0.1000000000D+01
 ****
     16 0
 S   6 1.00       0.000000000000
      0.4563240000D+04  0.1966650249D-02
      0.6820240000D+03  0.1523060193D-01
      0.1549730000D+03  0.7612690966D-01
      0.4445530000D+02  0.2608010331D+00
      0.1302900000D+02  0.6164620782D+00
      0.1827730000D+01  0.2210060280D+00
 SP   3 1.00       0.000000000000
      0.2096420000D+02  0.1146600807D+00  0.4024869267D-01
      0.4803310000D+01  0.9199996477D+00  0.2375939567D+00
      0.1459330000D+01 -0.3030682134D-02  0.8158538515D+00
 SP   1 1.00       0.000000000000
      0.4834560000D+00  0.1000000000D+01  0.1000000000D+01
 SP   1 1.00       0.000000000000
      0.1455850000D+00  0.1000000000D+01  0.1000000000D+01
 SP   1 1.00       0.000000000000
      0.4380000000D-01  0.1000000000D+01  0.1000000000D+01
 D   1 1.00       0.000000000000
      0.6260000000D+00  0.1000000000D+01
 ****
     17 0
 S   3 1.00       0.000000000000
      0.3386500000D+02  0.2549381454D-01
      0.5094790000D+01  0.1903731086D+00
      0.1158790000D+01  0.8521614860D+00
 S   1 1.00       0.000000000000
      0.3258400000D+00  0.1000000000D+01
 S   1 1.00       0.000000000000
      0.1027410000D+00  0.1000000000D+01
 P   1 1.00       0.000000000000
      0.7500000000D+00  0.1000000000D+01
 ****
     18 0
 S   3 1.00       0.000000000000
      0.3386500000D+02  0.2549381454D-01
      0.5094790000D+01  0.1903731086D+00
      0.1158790000D+01  0.8521614860D+00
 S   1 1.00       0.000000000000
      0.3258400000D+00  0.1000000000D+01
 S   1 1.00       0.000000000000
      0.1027410000D+00  0.1000000000D+01
 P   1 1.00       0.000000000000
      0.7500000000D+00  0.1000000000D+01
 ****
     19 0
 S   3 1.00       0.000000000000
      0.3386500000D+02  0.2549381454D-01
      0.5094790000D+01  0.1903731086D+00
      0.1158790000D+01  0.8521614860D+00
 S   1 1.00       0.000000000000
      0.3258400000D+00  0.1000000000D+01
 S   1 1.00       0.000000000000
      0.1027410000D+00  0.1000000000D+01
 P   1 1.00       0.000000000000
      0.7500000000D+00  0.1000000000D+01
 ****
     20 0
 S   6 1.00       0.000000000000
      0.1058190000D+06  0.7380002465D-03
      0.1587200000D+05  0.5718001910D-02
      0.3619650000D+04  0.2949500985D-01
      0.1030800000D+04  0.1172860392D+00
      0.3399080000D+03  0.3629491212D+00
      0.1245380000D+03  0.5841491951D+00
 S   3 1.00       0.000000000000
      0.1245380000D+03  0.1341769734D+00
      0.4951350000D+02  0.6242498762D+00
      0.2080560000D+02  0.2917559421D+00
 S   1 1.00       0.000000000000
      0.6583460000D+01  0.1000000000D+01
 S   1 1.00       0.000000000000
      0.2564680000D+01  0.1000000000D+01
 S   1 1.00       0.000000000000
      0.5597630000D+00  0.1000000000D+01
 S   1 1.00       0.000000000000
      0.1832730000D+00  0.1000000000D+01
 SP   1 1.00       0.000000000000
      0.4830000000D-01  0.1000000000D+01  0.1000000000D+01
 P   5 1.00       0.000000000000
      0.5897760000D+03  0.3665569355D-02
      0.1398490000D+03  0.2836791942D-01
      0.4514130000D+02  0.1247566028D+00
      0.1687330000D+02  0.3396546305D+00
      0.2771520000D+01  0.7475859630D+00
 P   2 1.00       0.000000000000
      0.6741100000D+01 -0.1572243813D+01
      0.2771520000D+01  0.9923888817D+00
 P   1 1.00       0.000000000000
      0.1023870000D+01  0.1000000000D+01
 P   1 1.00       0.000000000000
      0.3813680000D+00  0.1000000000D+01
 P   1 1.00       0.000000000000
      0.1094370000D+00  0.1000000000D+01
 D   1 1.00       0.000000000000
      0.7500000000D+00  0.1000000000D+01
 ****

 There are   281 symmetry adapted cartesian basis functions of A   symmetry.
 There are   272 symmetry adapted basis functions of A   symmetry.
   272 basis functions,   429 primitive gaussians,   281 cartesian basis functions
    39 alpha electrons       39 beta electrons
       nuclear repulsion energy       517.1516377813 Hartrees.
 NAtoms=   20 NActive=   20 NUniq=   20 SFac= 1.00D+00 NAtFMM=   60 NAOKFM=F Big=F
 Integral buffers will be    131072 words long.
 Raffenetti 2 integral format.
 Two-electron integral symmetry is turned on.
 Nuclear repulsion after empirical dispersion term =      517.1193942802 Hartrees.
 One-electron integrals computed using PRISM.
 NBasis=   272 RedAO= T EigKep=  1.99D-05  NBF=   272
 NBsUse=   272 1.00D-06 EigRej= -1.00D+00 NBFU=   272
 ExpMin= 4.38D-02 ExpMax= 1.06D+05 ExpMxC= 3.62D+03 IAcc=3 IRadAn=         5 AccDes= 0.00D+00
 Harris functional with IExCor=  402 and IRadAn=       5 diagonalized for initial guess.
 HarFok:  IExCor=  402 AccDes= 0.00D+00 IRadAn=         5 IDoV= 1 UseB2=F ITyADJ=14
 ICtDFT=  3500011 ScaDFX=  1.000000  1.000000  1.000000  1.000000
 FoFCou: FMM=F IPFlag=           0 FMFlag=      100000 FMFlg1=           0
         NFxFlg=           0 DoJE=T BraDBF=F KetDBF=T FulRan=T
         wScrn=  0.000000 ICntrl=     500 IOpCl=  0 I1Cent=   200000004 NGrid=           0
         NMat0=    1 NMatS0=      1 NMatT0=    0 NMatD0=    1 NMtDS0=    0 NMtDT0=    0
 Petite list used in FoFCou.
 Keep R1 ints in memory in canonical form, NReq=700735283.
 Requested convergence on RMS density matrix=1.00D-09 within 128 cycles.
 Requested convergence on MAX density matrix=1.00D-07.
 Requested convergence on             energy=1.00D-07.
 No special actions if energy rises.
 SCF Done:  E(RB3LYP) =  -805.117520835     A.U. after   15 cycles
            NFock= 15  Conv=0.33D-09     -V/T= 2.0033

 **********************************************************************

            Population analysis using the SCF density.

 **********************************************************************

 Orbital symmetries:
       Occupied  (A) (A) (A) (A) (A) (A) (A) (A) (A) (A) (A) (A)
                 (A) (A) (A) (A) (A) (A) (A) (A) (A) (A) (A) (A)
                 (A) (A) (A) (A) (A) (A) (A) (A) (A) (A) (A) (A)
                 (A) (A) (A)
       Virtual   (A) (A) (A) (A) (A) (A) (A) (A) (A) (A) (A) (A)
                 (A) (A) (A) (A) (A) (A) (A) (A) (A) (A) (A) (A)
                 (A) (A) (A) (A) (A) (A) (A) (A) (A) (A) (A) (A)
                 (A) (A) (A) (A) (A) (A) (A) (A) (A) (A) (A) (A)
                 (A) (A) (A) (A) (A) (A) (A) (A) (A) (A) (A) (A)
                 (A) (A) (A) (A) (A) (A) (A) (A) (A) (A) (A) (A)
                 (A) (A) (A) (A) (A) (A) (A) (A) (A) (A) (A) (A)
                 (A) (A) (A) (A) (A) (A) (A) (A) (A) (A) (A) (A)
                 (A) (A) (A) (A) (A) (A) (A) (A) (A) (A) (A) (A)
                 (A) (A) (A) (A) (A) (A) (A) (A) (A) (A) (A) (A)
                 (A) (A) (A) (A) (A) (A) (A) (A) (A) (A) (A) (A)
                 (A) (A) (A) (A) (A) (A) (A) (A) (A) (A) (A) (A)
                 (A) (A) (A) (A) (A) (A) (A) (A) (A) (A) (A) (A)
                 (A) (A) (A) (A) (A) (A) (A) (A) (A) (A) (A) (A)
                 (A) (A) (A) (A) (A) (A) (A) (A) (A) (A) (A) (A)
                 (A) (A) (A) (A) (A) (A) (A) (A) (A) (A) (A) (A)
                 (A) (A) (A) (A) (A) (A) (A) (A) (A) (A) (A) (A)
                 (A) (A) (A) (A) (A) (A) (A) (A) (A) (A) (A) (A)
                 (A) (A) (A) (A) (A) (A) (A) (A) (A) (A) (A) (A)
                 (A) (A) (A) (A) (A)
 The electronic state is 1-A.
 Alpha  occ. eigenvalues -- -101.39532 -14.43106 -14.43062 -10.27544 -10.26184
 Alpha  occ. eigenvalues --  -10.26020 -10.25721 -10.23483 -10.18623  -9.30938
 Alpha  occ. eigenvalues --   -7.06798  -7.06742  -7.06724  -1.10119  -0.98403
 Alpha  occ. eigenvalues --   -0.84119  -0.80257  -0.76094  -0.68860  -0.67144
 Alpha  occ. eigenvalues --   -0.66248  -0.62540  -0.58354  -0.53577  -0.51352
 Alpha  occ. eigenvalues --   -0.50407  -0.49760  -0.48616  -0.47790  -0.44917
 Alpha  occ. eigenvalues --   -0.42932  -0.41904  -0.40682  -0.38887  -0.33755
 Alpha  occ. eigenvalues --   -0.30125  -0.20207  -0.19867  -0.19600
 Alpha virt. eigenvalues --   -0.04310  -0.03576  -0.02314  -0.00893   0.00227
 Alpha virt. eigenvalues --    0.01680   0.02048   0.02571   0.03422   0.04113
 Alpha virt. eigenvalues --    0.05227   0.05609   0.06509   0.07489   0.07620
 Alpha virt. eigenvalues --    0.08323   0.09076   0.09781   0.10312   0.11325
 Alpha virt. eigenvalues --    0.12110   0.12563   0.13028   0.13378   0.14218
 Alpha virt. eigenvalues --    0.14620   0.15013   0.15515   0.15577   0.16201
 Alpha virt. eigenvalues --    0.16491   0.17157   0.17416   0.17610   0.18455
 Alpha virt. eigenvalues --    0.18694   0.19054   0.19988   0.21209   0.21831
 Alpha virt. eigenvalues --    0.22059   0.22604   0.23213   0.23638   0.24959
 Alpha virt. eigenvalues --    0.26042   0.26448   0.26831   0.27668   0.28651
 Alpha virt. eigenvalues --    0.30060   0.32173   0.33510   0.35808   0.36884
 Alpha virt. eigenvalues --    0.38516   0.39457   0.40859   0.41252   0.43128
 Alpha virt. eigenvalues --    0.44838   0.47382   0.48059   0.50754   0.50886
 Alpha virt. eigenvalues --    0.52717   0.53265   0.53767   0.53952   0.56950
 Alpha virt. eigenvalues --    0.57565   0.58677   0.59160   0.59748   0.60449
 Alpha virt. eigenvalues --    0.61603   0.62774   0.64144   0.64593   0.66232
 Alpha virt. eigenvalues --    0.66584   0.67686   0.69008   0.70165   0.70920
 Alpha virt. eigenvalues --    0.73910   0.74307   0.76171   0.76828   0.80757
 Alpha virt. eigenvalues --    0.82221   0.84442   0.86384   0.90239   0.91868
 Alpha virt. eigenvalues --    0.93229   0.93917   0.96485   0.97958   1.00122
 Alpha virt. eigenvalues --    1.00780   1.01087   1.02167   1.03278   1.04244
 Alpha virt. eigenvalues --    1.04823   1.05951   1.11257   1.11419   1.14297
 Alpha virt. eigenvalues --    1.18503   1.22313   1.24830   1.26996   1.30036
 Alpha virt. eigenvalues --    1.30648   1.37417   1.39111   1.41473   1.42448
 Alpha virt. eigenvalues --    1.45051   1.47314   1.49870   1.51093   1.51945
 Alpha virt. eigenvalues --    1.52582   1.53055   1.55204   1.55583   1.57720
 Alpha virt. eigenvalues --    1.58514   1.60113   1.60980   1.63205   1.64418
 Alpha virt. eigenvalues --    1.67227   1.68337   1.69325   1.70812   1.74766
 Alpha virt. eigenvalues --    1.76870   1.78582   1.78731   1.80618   1.83122
 Alpha virt. eigenvalues --    1.86201   1.87581   1.93830   1.94996   2.01104
 Alpha virt. eigenvalues --    2.02291   2.04394   2.07237   2.09014   2.11017
 Alpha virt. eigenvalues --    2.13456   2.16333   2.18213   2.19517   2.23531
 Alpha virt. eigenvalues --    2.28488   2.31190   2.36563   2.37875   2.40449
 Alpha virt. eigenvalues --    2.41833   2.42297   2.44160   2.44936   2.46368
 Alpha virt. eigenvalues --    2.48275   2.49075   2.50851   2.52309   2.52718
 Alpha virt. eigenvalues --    2.54484   2.55906   2.57180   2.60163   2.61282
 Alpha virt. eigenvalues --    2.61766   2.63336   2.63737   2.66399   2.70355
 Alpha virt. eigenvalues --    2.71187   2.73141   2.74630   2.75540   2.79528
 Alpha virt. eigenvalues --    2.82266   2.85657   2.88865   2.92689   2.94571
 Alpha virt. eigenvalues --    2.95629   2.97747   3.08703   3.18800   3.24341
 Alpha virt. eigenvalues --    3.36301   3.55895   3.57386   3.62287   3.66469
 Alpha virt. eigenvalues --    3.70870   3.71943   3.74223   3.79377   3.80555
 Alpha virt. eigenvalues --    3.82549   3.88408   3.89718   3.90327   4.06795
 Alpha virt. eigenvalues --    4.18007   4.69447   4.90201   4.92086   5.23560
 Alpha virt. eigenvalues --    9.86476  23.70930  23.81544  23.86088  23.89639
 Alpha virt. eigenvalues --   23.95436  24.13794  25.93302  26.06963  26.23742
 Alpha virt. eigenvalues --   35.42576  35.57597 215.85458
     Molecular Orbital Coefficients:
                           1         2         3         4         5
                           O         O         O         O         O
     Eigenvalues --  -101.39532 -14.43106 -14.43062 -10.27544 -10.26184
   1 1   C  1S          0.00000   0.00001  -0.00001  -0.00011   0.54964
   2        2S          0.00000   0.00002   0.00005  -0.00010   0.45226
   3        2PX         0.00000  -0.00032   0.00001   0.00009  -0.00042
   4        2PY         0.00000  -0.00030   0.00007  -0.00002  -0.00054
   5        2PZ         0.00000  -0.00002   0.00001  -0.00001  -0.00004
   6        3S          0.00001   0.00034  -0.00038  -0.00007   0.01984
   7        3PX        -0.00001   0.00076   0.00046  -0.00039   0.00034
   8        3PY        -0.00002   0.00083  -0.00076  -0.00001   0.00116
   9        3PZ         0.00000   0.00006  -0.00008   0.00003   0.00009
  10        4S          0.00007   0.00451  -0.00003   0.00031  -0.01647
  11        4PX         0.00005  -0.00386   0.00233  -0.00119   0.00553
  12        4PY        -0.00003  -0.00130  -0.00037  -0.00005  -0.00279
  13        4PZ         0.00000  -0.00007   0.00001  -0.00004  -0.00028
  14        5S         -0.00230  -0.00990   0.01639   0.01223  -0.02165
  15        5PX         0.00044   0.00160  -0.00322  -0.00234   0.00365
  16        5PY        -0.00026   0.00005   0.00179   0.00145   0.00168
  17        5PZ        -0.00003   0.00015   0.00034   0.00077  -0.00007
  18        6D 0        0.00000   0.00007  -0.00008  -0.00013  -0.00161
  19        6D+1        0.00000  -0.00007  -0.00001  -0.00001  -0.00014
  20        6D-1        0.00000   0.00003  -0.00003   0.00000   0.00020
  21        6D+2        0.00000  -0.00031   0.00050   0.00025   0.00058
  22        6D-2        0.00000  -0.00097   0.00006   0.00000  -0.00122
  23 2   C  1S          0.00000  -0.00001   0.00001  -0.00011   0.12133
  24        2S          0.00000   0.00005   0.00002  -0.00009   0.10010
  25        2PX         0.00000   0.00010  -0.00045   0.00005   0.00018
  26        2PY         0.00000  -0.00005  -0.00004   0.00008  -0.00067
  27        2PZ         0.00000  -0.00001   0.00000   0.00000  -0.00006
  28        3S          0.00000  -0.00036   0.00038  -0.00009   0.00384
  29        3PX        -0.00001  -0.00042   0.00117  -0.00027  -0.00125
  30        3PY        -0.00001   0.00086   0.00004  -0.00027   0.00323
  31        3PZ         0.00000   0.00009   0.00000   0.00000   0.00030
  32        4S          0.00018   0.00030   0.00321   0.00012   0.00052
  33        4PX        -0.00003   0.00144  -0.00301  -0.00024   0.00069
  34        4PY        -0.00001   0.00175  -0.00249  -0.00153  -0.00226
  35        4PZ         0.00000   0.00011  -0.00021  -0.00018  -0.00024
  36        5S          0.00111   0.01125  -0.01873  -0.00718   0.01130
  37        5PX         0.00018  -0.00110   0.00186  -0.00106  -0.00036
  38        5PY        -0.00033  -0.00239   0.00284   0.00183  -0.00392
  39        5PZ        -0.00003  -0.00027   0.00009  -0.00021  -0.00022
  40        6D 0        0.00000  -0.00008   0.00013  -0.00011   0.00050
  41        6D+1        0.00000   0.00004  -0.00002   0.00002   0.00012
  42        6D-1        0.00000   0.00000   0.00007   0.00001  -0.00018
  43        6D+2        0.00000   0.00008  -0.00092  -0.00001   0.00117
  44        6D-2        0.00000   0.00052  -0.00041   0.00024   0.00139
  45 3   C  1S          0.00000   0.00000   0.00000   0.56287   0.00013
  46        2S         -0.00001   0.00010   0.00010   0.46327   0.00010
  47        2PX         0.00001   0.00044   0.00012   0.00122  -0.00006
  48        2PY         0.00000  -0.00029   0.00053   0.00052  -0.00003
  49        2PZ         0.00000  -0.00002   0.00004   0.00003  -0.00001
  50        3S          0.00004   0.00010   0.00009   0.01922  -0.00014
  51        3PX        -0.00006  -0.00137  -0.00043  -0.00024   0.00015
  52        3PY        -0.00002   0.00090  -0.00168  -0.00010   0.00006
  53        3PZ         0.00000   0.00006  -0.00012   0.00000   0.00002
  54        4S         -0.00010   0.00494   0.00643  -0.00839  -0.00030
  55        4PX         0.00062   0.00579   0.00335   0.00255   0.00214
  56        4PY         0.00026   0.00048   0.00428   0.00276   0.00124
  57        4PZ         0.00002   0.00005   0.00030   0.00013   0.00004
  58        5S          0.00100  -0.00224   0.00033  -0.02139  -0.00793
  59        5PX         0.00136  -0.00119   0.00357  -0.00151  -0.00941
  60        5PY         0.00055   0.00772  -0.00252   0.00365   0.00245
  61        5PZ         0.00007   0.00004  -0.00043  -0.00051   0.00036
  62        6D 0        0.00000   0.00024   0.00019  -0.00181  -0.00017
  63        6D+1        0.00000   0.00010  -0.00005   0.00001   0.00000
  64        6D-1        0.00000   0.00001  -0.00010   0.00021   0.00001
  65        6D+2        0.00000  -0.00076   0.00110   0.00064   0.00022
  66        6D-2        0.00001   0.00101  -0.00055   0.00045   0.00018
  67 4   N  1S          0.00000   0.55720   0.01378  -0.00007  -0.00004
  68        2S          0.00000   0.46552   0.01159  -0.00003  -0.00006
  69        2PX         0.00000   0.00007  -0.00006  -0.00041   0.00023
  70        2PY         0.00000  -0.00001   0.00004   0.00028   0.00027
  71        2PZ         0.00000  -0.00006   0.00000   0.00002   0.00002
  72        3S          0.00001   0.01653   0.00003   0.00070   0.00073
  73        3PX         0.00000  -0.00046   0.00035   0.00107  -0.00025
  74        3PY         0.00002   0.00092  -0.00030  -0.00072  -0.00054
  75        3PZ         0.00000   0.00009  -0.00001  -0.00005  -0.00004
  76        4S         -0.00016  -0.01805  -0.00078  -0.00433  -0.00188
  77        4PX        -0.00004   0.00027   0.00087   0.00140  -0.00074
  78        4PY        -0.00014  -0.00153  -0.00084  -0.00277   0.00004
  79        4PZ        -0.00001  -0.00014  -0.00008  -0.00026   0.00004
  80        5S         -0.00031   0.01204  -0.01262   0.00905   0.01778
  81        5PX         0.00015  -0.00378   0.00104  -0.00710   0.00325
  82        5PY         0.00005   0.00602  -0.01136  -0.00051   0.01806
  83        5PZ        -0.00001   0.00067  -0.00110   0.00028   0.00150
  84        6D 0        0.00000  -0.00047   0.00004   0.00070   0.00050
  85        6D+1        0.00000  -0.00002   0.00002   0.00009  -0.00003
  86        6D-1        0.00000   0.00006   0.00001  -0.00008  -0.00006
  87        6D+2        0.00000   0.00014  -0.00018  -0.00036   0.00005
  88        6D-2       -0.00001  -0.00012   0.00017   0.00084  -0.00056
  89 5   H  1S          0.00001  -0.00012   0.00000  -0.00008   0.00008
  90        2S         -0.00004  -0.00019  -0.00124   0.00037  -0.00483
  91        3S          0.00002   0.00183  -0.00044   0.00135   0.00094
  92        4PX         0.00000   0.00036   0.00033  -0.00005   0.00247
  93        4PY         0.00000   0.00023  -0.00015  -0.00002  -0.00059
  94        4PZ         0.00000   0.00001  -0.00002   0.00000  -0.00008
  95 6   H  1S          0.00000   0.00000  -0.00015  -0.00009  -0.00011
  96        2S         -0.00002  -0.00116   0.00014   0.00055  -0.00112
  97        3S          0.00005  -0.00062   0.00155   0.00112   0.00088
  98        4PX         0.00000   0.00009   0.00036  -0.00008   0.00014
  99        4PY         0.00000   0.00032   0.00009  -0.00004   0.00090
 100        4PZ         0.00000   0.00003   0.00000   0.00000   0.00008
 101 7   H  1S          0.00000  -0.00013  -0.00018   0.00008  -0.00011
 102        2S          0.00004   0.00039  -0.00013  -0.00309   0.00039
 103        3S          0.00118   0.00286   0.00230   0.00715   0.00394
 104        4PX        -0.00003  -0.00031  -0.00024  -0.00200   0.00003
 105        4PY         0.00001   0.00028  -0.00045  -0.00081   0.00000
 106        4PZ         0.00000   0.00002  -0.00004  -0.00006   0.00000
 107 8   N  1S          0.00000  -0.01379   0.55720  -0.00007  -0.00001
 108        2S          0.00000  -0.01145   0.46552  -0.00004   0.00002
 109        2PX         0.00000  -0.00002   0.00004  -0.00007   0.00014
 110        2PY         0.00000  -0.00007   0.00009  -0.00046   0.00006
 111        2PZ         0.00000  -0.00001   0.00002  -0.00004   0.00000
 112        3S          0.00001  -0.00076   0.01647   0.00080   0.00006
 113        3PX         0.00001   0.00007   0.00033   0.00016  -0.00055
 114        3PY        -0.00001   0.00049  -0.00101   0.00113  -0.00015
 115        3PZ         0.00000   0.00006  -0.00009   0.00010  -0.00001
 116        4S         -0.00014  -0.00053  -0.01760  -0.00517  -0.00233
 117        4PX        -0.00015  -0.00054  -0.00037  -0.00044  -0.00025
 118        4PY         0.00016   0.00138   0.00183   0.00353  -0.00014
 119        4PZ         0.00001   0.00004   0.00015   0.00027   0.00000
 120        5S         -0.00067  -0.01193   0.01122   0.00470  -0.01179
 121        5PX        -0.00032  -0.00619   0.00644  -0.00131   0.00335
 122        5PY         0.00029   0.00748  -0.00712  -0.00311   0.00419
 123        5PZ         0.00001   0.00093  -0.00049   0.00019   0.00031
 124        6D 0        0.00000   0.00006  -0.00050   0.00070   0.00015
 125        6D+1        0.00000  -0.00002   0.00000  -0.00002  -0.00001
 126        6D-1        0.00000  -0.00002   0.00008  -0.00016   0.00001
 127        6D+2        0.00000   0.00018  -0.00011   0.00082  -0.00035
 128        6D-2        0.00000  -0.00018   0.00010  -0.00029  -0.00021
 129 9   C  1S          0.00000   0.00001   0.00000  -0.00008  -0.00062
 130        2S          0.00000  -0.00001   0.00001  -0.00006  -0.00048
 131        2PX         0.00000  -0.00005  -0.00002   0.00003  -0.00004
 132        2PY         0.00000   0.00031   0.00005   0.00004   0.00000
 133        2PZ         0.00000   0.00006   0.00002   0.00000   0.00000
 134        3S         -0.00002  -0.00012  -0.00008  -0.00004  -0.00046
 135        3PX         0.00001   0.00028   0.00011  -0.00004   0.00021
 136        3PY        -0.00002  -0.00055  -0.00022  -0.00027  -0.00004
 137        3PZ         0.00000  -0.00026  -0.00010  -0.00003  -0.00005
 138        4S          0.00000   0.00503  -0.00076  -0.00223   0.00327
 139        4PX        -0.00004  -0.00006  -0.00080  -0.00006  -0.00043
 140        4PY         0.00002   0.00172  -0.00025  -0.00036   0.00069
 141        4PZ         0.00002   0.00058  -0.00040  -0.00069   0.00028
 142        5S          0.00043   0.00087  -0.00732  -0.00703   0.01895
 143        5PX        -0.00016   0.00081   0.00063   0.00217  -0.00135
 144        5PY        -0.00001   0.00188  -0.00212   0.00222   0.00462
 145        5PZ         0.00004  -0.00066  -0.00058  -0.00227   0.00140
 146        6D 0        0.00000   0.00030   0.00006   0.00000  -0.00003
 147        6D+1        0.00000   0.00005  -0.00001   0.00000   0.00002
 148        6D-1        0.00000  -0.00010  -0.00002  -0.00002   0.00001
 149        6D+2        0.00000   0.00042   0.00006   0.00009   0.00004
 150        6D-2        0.00000   0.00003  -0.00002  -0.00011   0.00005
 151 10  C  1S          0.00000   0.00000   0.00000  -0.00001  -0.00001
 152        2S          0.00000   0.00001   0.00001   0.00000   0.00001
 153        2PX         0.00000   0.00005  -0.00001  -0.00003   0.00002
 154        2PY         0.00000   0.00005   0.00003   0.00002   0.00003
 155        2PZ         0.00000  -0.00003  -0.00002  -0.00002  -0.00002
 156        3S          0.00000   0.00001  -0.00010  -0.00018  -0.00010
 157        3PX        -0.00001  -0.00024   0.00002   0.00011  -0.00008
 158        3PY         0.00000  -0.00026  -0.00014  -0.00015  -0.00015
 159        3PZ         0.00000   0.00017   0.00013   0.00016   0.00006
 160        4S          0.00002  -0.00081  -0.00038   0.00129   0.00019
 161        4PX        -0.00003  -0.00045  -0.00034  -0.00028   0.00011
 162        4PY        -0.00003  -0.00026   0.00060   0.00046   0.00040
 163        4PZ        -0.00004   0.00016   0.00055   0.00024  -0.00029
 164        5S         -0.00038   0.00718   0.00094   0.01326  -0.00303
 165        5PX        -0.00003   0.00067  -0.00007   0.00134  -0.00011
 166        5PY        -0.00008   0.00187   0.00044   0.00275  -0.00045
 167        5PZ         0.00003  -0.00065   0.00016  -0.00089   0.00015
 168        6D 0       -0.00001   0.00001   0.00001   0.00003  -0.00003
 169        6D+1        0.00000   0.00003   0.00002   0.00001   0.00000
 170        6D-1        0.00000   0.00009   0.00003   0.00004   0.00000
 171        6D+2        0.00000  -0.00007   0.00000  -0.00001   0.00001
 172        6D-2       -0.00001  -0.00013   0.00000  -0.00001  -0.00002
 173 11  H  1S          0.00000   0.00003  -0.00001   0.00000  -0.00003
 174        2S          0.00000  -0.00127   0.00014   0.00006  -0.00017
 175        3S          0.00003   0.00077  -0.00077   0.00103   0.00039
 176        4PX         0.00000   0.00029   0.00002   0.00002   0.00003
 177        4PY         0.00000  -0.00012  -0.00002   0.00001  -0.00009
 178        4PZ         0.00000   0.00010   0.00001   0.00002   0.00004
 179 12  H  1S          0.00000  -0.00004   0.00003   0.00004   0.00002
 180        2S          0.00000  -0.00098  -0.00037  -0.00017  -0.00021
 181        3S          0.00002   0.00054  -0.00111  -0.00094   0.00120
 182        4PX         0.00000  -0.00002   0.00008   0.00008  -0.00003
 183        4PY         0.00000  -0.00009  -0.00002  -0.00007  -0.00002
 184        4PZ         0.00000  -0.00031  -0.00009  -0.00004  -0.00005
 185 13  H  1S          0.00000  -0.00004  -0.00004  -0.00001  -0.00001
 186        2S         -0.00002   0.00001   0.00020  -0.00008   0.00003
 187        3S          0.00000   0.00001   0.00044  -0.00002   0.00026
 188        4PX         0.00000   0.00005  -0.00001   0.00000   0.00000
 189        4PY         0.00000  -0.00004   0.00002  -0.00003  -0.00002
 190        4PZ         0.00000  -0.00003  -0.00002  -0.00003   0.00001
 191 14  H  1S          0.00000   0.00002   0.00005   0.00005  -0.00003
 192        2S          0.00001  -0.00006  -0.00044  -0.00045   0.00024
 193        3S          0.00009  -0.00049  -0.00055  -0.00138   0.00056
 194        4PX         0.00000  -0.00001   0.00001   0.00002   0.00001
 195        4PY         0.00000  -0.00005  -0.00005  -0.00008   0.00002
 196        4PZ         0.00000   0.00009   0.00010   0.00017  -0.00002
 197 15  H  1S          0.00001   0.00002   0.00000   0.00000  -0.00001
 198        2S         -0.00005  -0.00006  -0.00012  -0.00018   0.00002
 199        3S          0.00000  -0.00071  -0.00046  -0.00207   0.00043
 200        4PX         0.00000  -0.00008   0.00001  -0.00001   0.00003
 201        4PY        -0.00001  -0.00006  -0.00002  -0.00012   0.00002
 202        4PZ         0.00000  -0.00002  -0.00003  -0.00002  -0.00001
 203 16  C  1S          0.00000   0.00000   0.00001  -0.00004  -0.00005
 204        2S          0.00000   0.00002  -0.00003  -0.00002  -0.00002
 205        2PX         0.00000   0.00002   0.00023   0.00006   0.00001
 206        2PY         0.00000  -0.00004  -0.00023   0.00004  -0.00004
 207        2PZ         0.00000   0.00000  -0.00002   0.00001   0.00000
 208        3S          0.00001  -0.00014   0.00004  -0.00014  -0.00038
 209        3PX        -0.00002  -0.00013  -0.00049  -0.00026  -0.00014
 210        3PY         0.00001   0.00023   0.00051  -0.00005   0.00021
 211        3PZ         0.00000   0.00001   0.00005  -0.00002   0.00002
 212        4S         -0.00027  -0.00088   0.00514  -0.00065   0.00281
 213        4PX        -0.00002  -0.00061   0.00113  -0.00044   0.00073
 214        4PY         0.00004  -0.00045  -0.00147   0.00033  -0.00108
 215        4PZ         0.00000   0.00003  -0.00018   0.00005  -0.00013
 216        5S         -0.00041  -0.00893   0.00714   0.00191   0.00023
 217        5PX         0.00001  -0.00149   0.00124   0.00033   0.00018
 218        5PY         0.00015   0.00233  -0.00157  -0.00056  -0.00019
 219        5PZ         0.00001   0.00040  -0.00009   0.00021  -0.00008
 220        6D 0        0.00000   0.00000   0.00036  -0.00002  -0.00001
 221        6D+1        0.00000   0.00001   0.00005   0.00001   0.00000
 222        6D-1        0.00000   0.00000  -0.00006   0.00001  -0.00001
 223        6D+2        0.00000  -0.00005  -0.00005  -0.00016   0.00005
 224        6D-2        0.00000   0.00007   0.00048   0.00009   0.00006
 225 17  H  1S          0.00000   0.00000  -0.00002   0.00002   0.00003
 226        2S          0.00003   0.00002  -0.00103  -0.00002  -0.00036
 227        3S          0.00002  -0.00058   0.00086  -0.00034   0.00012
 228        4PX         0.00000   0.00002   0.00002   0.00000  -0.00004
 229        4PY        -0.00001   0.00005   0.00019   0.00004   0.00004
 230        4PZ        -0.00001   0.00000   0.00027   0.00001   0.00007
 231 18  H  1S          0.00000   0.00001  -0.00001   0.00003   0.00003
 232        2S          0.00004   0.00000  -0.00109  -0.00011  -0.00037
 233        3S          0.00000  -0.00029   0.00100   0.00011   0.00007
 234        4PX         0.00000   0.00002   0.00002   0.00001  -0.00004
 235        4PY        -0.00001   0.00005   0.00024   0.00004   0.00006
 236        4PZ         0.00000   0.00001  -0.00023  -0.00001  -0.00006
 237 19  H  1S          0.00000  -0.00001   0.00003  -0.00007   0.00004
 238        2S         -0.00001  -0.00018  -0.00110  -0.00002  -0.00051
 239        3S          0.00010  -0.00085   0.00048  -0.00107   0.00067
 240        4PX         0.00000   0.00002  -0.00028  -0.00002  -0.00009
 241        4PY         0.00000  -0.00005  -0.00009   0.00004  -0.00004
 242        4PZ         0.00000  -0.00001   0.00000   0.00000   0.00000
 243 20  Cl 1S          0.41161   0.00000   0.00000   0.00000   0.00000
 244        2S          0.65408   0.00000   0.00000  -0.00001   0.00000
 245        3S          0.01500   0.00001   0.00001   0.00007   0.00002
 246        4S         -0.00396  -0.00003  -0.00003  -0.00017  -0.00005
 247        5S          0.00151   0.00012   0.00010   0.00054   0.00017
 248        6S         -0.00114  -0.00047  -0.00030  -0.00138  -0.00042
 249        7S          0.00091   0.00073   0.00089   0.00095  -0.00343
 250        7PX         0.00045   0.00024   0.00036   0.00056  -0.00102
 251        7PY         0.00006  -0.00004   0.00007  -0.00004  -0.00049
 252        7PZ         0.00001  -0.00005  -0.00003  -0.00010   0.00000
 253        8PX         0.00001  -0.00003  -0.00001  -0.00007  -0.00001
 254        8PY         0.00000   0.00000   0.00000   0.00000   0.00000
 255        8PZ         0.00000   0.00000   0.00000   0.00000   0.00000
 256        9PX         0.00000  -0.00001  -0.00001  -0.00003   0.00000
 257        9PY         0.00000   0.00000   0.00000   0.00000   0.00000
 258        9PZ         0.00000   0.00000   0.00000   0.00000   0.00000
 259       10PX         0.00000   0.00010   0.00004   0.00023   0.00005
 260       10PY        -0.00001   0.00001   0.00001   0.00001   0.00001
 261       10PZ         0.00000   0.00001   0.00000   0.00001   0.00000
 262       11PX         0.00000  -0.00019  -0.00007  -0.00038  -0.00008
 263       11PY         0.00001  -0.00003  -0.00002  -0.00004  -0.00004
 264       11PZ         0.00000  -0.00001   0.00000  -0.00003   0.00001
 265       12PX        -0.00027   0.00007  -0.00006  -0.00061  -0.00067
 266       12PY        -0.00003   0.00005   0.00008   0.00002   0.00011
 267       12PZ         0.00000   0.00003   0.00002   0.00006  -0.00003
 268       13D 0        0.00001   0.00000   0.00001   0.00003   0.00002
 269       13D+1        0.00000   0.00000   0.00000   0.00000   0.00000
 270       13D-1        0.00000   0.00000   0.00000   0.00000   0.00000
 271       13D+2       -0.00002  -0.00001   0.00000  -0.00006  -0.00005
 272       13D-2        0.00000   0.00001   0.00000   0.00000   0.00001
                           6         7         8         9        10
                           O         O         O         O         O
     Eigenvalues --   -10.26020 -10.25721 -10.23483 -10.18623  -9.30938
   1 1   C  1S         -0.12150   0.00057   0.00003   0.00000   0.00000
   2        2S         -0.09967   0.00049   0.00005   0.00002  -0.00002
   3        2PX        -0.00022  -0.00003  -0.00002   0.00001   0.00003
   4        2PY         0.00089  -0.00004   0.00001   0.00000   0.00007
   5        2PZ         0.00008   0.00000   0.00000  -0.00001   0.00001
   6        3S         -0.00497  -0.00028  -0.00019  -0.00022   0.00022
   7        3PX         0.00159   0.00028   0.00010  -0.00007  -0.00014
   8        3PY        -0.00394   0.00021  -0.00005   0.00001  -0.00039
   9        3PZ        -0.00036   0.00002  -0.00001   0.00003  -0.00003
  10        4S          0.00805   0.00166   0.00242   0.00340   0.00116
  11        4PX        -0.00359   0.00115  -0.00155  -0.00101   0.00087
  12        4PY         0.00317  -0.00104   0.00048   0.00006  -0.00043
  13        4PZ         0.00038  -0.00013   0.00005  -0.00004  -0.00005
  14        5S          0.02814   0.03139  -0.00426   0.01984  -0.04654
  15        5PX        -0.00591  -0.00478  -0.00081  -0.00307   0.00875
  16        5PY         0.00269   0.00122  -0.00339   0.00183  -0.00561
  17        5PZ         0.00022   0.00072  -0.00025  -0.00010  -0.00069
  18        6D 0        0.00129  -0.00011   0.00001  -0.00007  -0.00001
  19        6D+1        0.00018  -0.00002   0.00001  -0.00001   0.00000
  20        6D-1       -0.00031   0.00002   0.00000   0.00001   0.00000
  21        6D+2        0.00113   0.00006  -0.00003   0.00000   0.00001
  22        6D-2        0.00201  -0.00022   0.00001  -0.00004   0.00003
  23 2   C  1S          0.54968   0.00030   0.00009   0.00000   0.00000
  24        2S          0.45216   0.00028   0.00010   0.00001  -0.00001
  25        2PX        -0.00081   0.00000  -0.00008  -0.00001   0.00002
  26        2PY         0.00035  -0.00004  -0.00002  -0.00003   0.00002
  27        2PZ         0.00004  -0.00001   0.00000   0.00001   0.00000
  28        3S          0.02003  -0.00024  -0.00015   0.00001   0.00004
  29        3PX         0.00174   0.00000   0.00053   0.00005  -0.00017
  30        3PY        -0.00208   0.00025   0.00019   0.00019  -0.00011
  31        3PZ        -0.00018   0.00006   0.00002  -0.00002  -0.00002
  32        4S         -0.01741   0.00116  -0.00239  -0.00238   0.00329
  33        4PX         0.00127  -0.00035   0.00108   0.00018  -0.00062
  34        4PY         0.00736  -0.00148   0.00169   0.00051  -0.00033
  35        4PZ         0.00059  -0.00026   0.00010   0.00020   0.00004
  36        5S         -0.03377  -0.01853   0.00954  -0.01345   0.02323
  37        5PX         0.00361  -0.00119   0.00174  -0.00116   0.00383
  38        5PY         0.00502   0.00396  -0.00135   0.00355  -0.00697
  39        5PZ         0.00041  -0.00006  -0.00016   0.00054  -0.00059
  40        6D 0       -0.00202   0.00001  -0.00003   0.00002  -0.00003
  41        6D+1       -0.00003   0.00000   0.00001  -0.00001   0.00000
  42        6D-1        0.00047  -0.00001   0.00002   0.00000   0.00001
  43        6D+2       -0.00192   0.00004  -0.00021   0.00001  -0.00002
  44        6D-2       -0.00015   0.00000   0.00003  -0.00002   0.00004
  45 3   C  1S          0.00008   0.00008   0.00004   0.00001   0.00000
  46        2S          0.00007   0.00008   0.00005   0.00002  -0.00006
  47        2PX        -0.00005   0.00003   0.00001  -0.00002   0.00013
  48        2PY        -0.00002  -0.00002   0.00002  -0.00005   0.00007
  49        2PZ         0.00000  -0.00002   0.00000   0.00003   0.00001
  50        3S         -0.00008   0.00001  -0.00010  -0.00002   0.00069
  51        3PX         0.00011  -0.00024  -0.00005   0.00006  -0.00083
  52        3PY         0.00010   0.00019  -0.00024   0.00019  -0.00028
  53        3PZ        -0.00001   0.00008   0.00000  -0.00012  -0.00006
  54        4S         -0.00048  -0.00370  -0.00203  -0.00193  -0.00202
  55        4PX         0.00192  -0.00263  -0.00344  -0.00162   0.01104
  56        4PY        -0.00039  -0.00027   0.00049  -0.00068   0.00479
  57        4PZ         0.00002  -0.00019   0.00000   0.00033   0.00045
  58        5S         -0.00495  -0.00556   0.00254  -0.00534   0.01911
  59        5PX        -0.00389  -0.00374  -0.00134  -0.00702   0.02663
  60        5PY        -0.00219   0.00653   0.00175   0.00839   0.01064
  61        5PZ        -0.00009  -0.00101  -0.00005   0.00162   0.00145
  62        6D 0       -0.00009   0.00002  -0.00002   0.00003  -0.00001
  63        6D+1        0.00001   0.00001  -0.00001   0.00000   0.00001
  64        6D-1        0.00001   0.00002   0.00000  -0.00002  -0.00001
  65        6D+2        0.00003  -0.00006   0.00009   0.00004  -0.00007
  66        6D-2        0.00020   0.00016  -0.00011   0.00001   0.00019
  67 4   N  1S          0.00001  -0.00002   0.00000   0.00000   0.00000
  68        2S          0.00005  -0.00005   0.00002   0.00001  -0.00001
  69        2PX         0.00004   0.00003  -0.00003   0.00000  -0.00002
  70        2PY        -0.00005  -0.00022   0.00001  -0.00005  -0.00004
  71        2PZ         0.00000  -0.00004   0.00000   0.00000   0.00000
  72        3S         -0.00023   0.00017  -0.00018  -0.00003   0.00008
  73        3PX        -0.00040  -0.00004   0.00015   0.00003   0.00009
  74        3PY        -0.00007   0.00014  -0.00004   0.00023   0.00026
  75        3PZ         0.00000   0.00005  -0.00001  -0.00001   0.00000
  76        4S         -0.00196   0.00369   0.00153   0.00003  -0.00264
  77        4PX         0.00002  -0.00112  -0.00130  -0.00084  -0.00075
  78        4PY        -0.00017   0.00016   0.00037  -0.00059  -0.00250
  79        4PZ        -0.00002   0.00003   0.00010  -0.00005  -0.00017
  80        5S         -0.01875   0.00942   0.00620  -0.00100  -0.00567
  81        5PX         0.00290  -0.00498  -0.00221  -0.00324   0.00272
  82        5PY        -0.00910  -0.01881   0.00281  -0.00815   0.00105
  83        5PZ        -0.00094  -0.00109   0.00033  -0.00096  -0.00014
  84        6D 0       -0.00006   0.00007   0.00001   0.00003  -0.00005
  85        6D+1       -0.00001   0.00001   0.00000  -0.00005  -0.00001
  86        6D-1        0.00003  -0.00009   0.00000  -0.00003   0.00001
  87        6D+2       -0.00020   0.00034  -0.00002   0.00007   0.00001
  88        6D-2       -0.00015   0.00007   0.00000   0.00000  -0.00010
  89 5   H  1S         -0.00014   0.00003  -0.00002  -0.00001   0.00008
  90        2S          0.00083  -0.00086   0.00014  -0.00009  -0.00067
  91        3S          0.00059  -0.00082   0.00062   0.00039   0.00034
  92        4PX        -0.00029   0.00028   0.00000   0.00004   0.00007
  93        4PY        -0.00027   0.00006  -0.00001   0.00000   0.00001
  94        4PZ        -0.00002  -0.00001   0.00000   0.00001   0.00000
  95 6   H  1S          0.00015  -0.00003   0.00002  -0.00002   0.00005
  96        2S         -0.00484   0.00018  -0.00062   0.00007  -0.00035
  97        3S          0.00091   0.00069  -0.00120  -0.00021   0.00097
  98        4PX         0.00127  -0.00002   0.00017  -0.00001   0.00004
  99        4PY         0.00204   0.00001   0.00016  -0.00001   0.00002
 100        4PZ         0.00017   0.00001   0.00002  -0.00002   0.00000
 101 7   H  1S         -0.00008   0.00001   0.00001   0.00001   0.00002
 102        2S          0.00041  -0.00022  -0.00054  -0.00018   0.00079
 103        3S          0.00202  -0.00327  -0.00279  -0.00173   0.02221
 104        4PX         0.00001  -0.00012  -0.00004  -0.00002  -0.00034
 105        4PY         0.00010   0.00005  -0.00021   0.00007   0.00012
 106        4PZ         0.00001   0.00002  -0.00002  -0.00001   0.00000
 107 8   N  1S         -0.00005   0.00000  -0.00003   0.00000   0.00000
 108        2S         -0.00007   0.00001  -0.00007   0.00001  -0.00001
 109        2PX         0.00033   0.00000  -0.00013   0.00000  -0.00001
 110        2PY        -0.00004  -0.00003   0.00014  -0.00002   0.00004
 111        2PZ        -0.00001  -0.00001   0.00001  -0.00001   0.00000
 112        3S          0.00077  -0.00009   0.00032  -0.00014   0.00012
 113        3PX        -0.00041  -0.00002  -0.00011  -0.00004   0.00011
 114        3PY         0.00029   0.00016   0.00000   0.00012  -0.00021
 115        3PZ         0.00003   0.00003   0.00000   0.00004  -0.00002
 116        4S         -0.00104   0.00043   0.00241   0.00102  -0.00249
 117        4PX        -0.00055   0.00025   0.00227   0.00076  -0.00252
 118        4PY        -0.00080  -0.00124  -0.00095  -0.00116   0.00291
 119        4PZ        -0.00008  -0.00015  -0.00010  -0.00020   0.00026
 120        5S          0.02174   0.00871   0.00535   0.00434  -0.01265
 121        5PX         0.01600   0.00516  -0.00604   0.00565  -0.00620
 122        5PY        -0.01247  -0.00544   0.00759  -0.00414   0.00557
 123        5PZ        -0.00121   0.00033   0.00083  -0.00085   0.00018
 124        6D 0        0.00049   0.00001   0.00009  -0.00002   0.00000
 125        6D+1        0.00002   0.00000   0.00003   0.00000   0.00000
 126        6D-1       -0.00003   0.00000  -0.00002   0.00000   0.00000
 127        6D+2       -0.00047   0.00001   0.00002   0.00001   0.00001
 128        6D-2        0.00009  -0.00001   0.00034   0.00001  -0.00001
 129 9   C  1S         -0.00017   0.56303   0.00000  -0.00095   0.00000
 130        2S         -0.00012   0.46323   0.00000  -0.00083   0.00003
 131        2PX        -0.00001  -0.00014  -0.00001  -0.00035  -0.00005
 132        2PY         0.00003   0.00100   0.00001  -0.00023   0.00005
 133        2PZ         0.00001   0.00019   0.00000   0.00022   0.00000
 134        3S         -0.00026   0.01946   0.00003   0.00061  -0.00029
 135        3PX         0.00004   0.00129   0.00005   0.00079   0.00023
 136        3PY        -0.00015  -0.00132  -0.00004   0.00038  -0.00033
 137        3PZ        -0.00007  -0.00091  -0.00001  -0.00046  -0.00002
 138        4S          0.00129  -0.01813  -0.00030   0.00031   0.00008
 139        4PX         0.00001   0.00230   0.00040   0.00015  -0.00075
 140        4PY         0.00086  -0.00186   0.00020  -0.00141   0.00026
 141        4PZ         0.00024  -0.00115  -0.00029   0.00050   0.00031
 142        5S          0.00074  -0.03177  -0.00209   0.02228   0.00855
 143        5PX        -0.00096   0.00239  -0.00036  -0.00535  -0.00332
 144        5PY        -0.00123  -0.00435  -0.00091  -0.00130  -0.00017
 145        5PZ         0.00054  -0.00349  -0.00032   0.00222   0.00070
 146        6D 0        0.00000   0.00064   0.00001   0.00014   0.00002
 147        6D+1        0.00000   0.00046   0.00002   0.00049  -0.00003
 148        6D-1       -0.00001   0.00004   0.00001   0.00029  -0.00003
 149        6D+2       -0.00001   0.00088   0.00001  -0.00004   0.00003
 150        6D-2        0.00003  -0.00020   0.00004  -0.00044   0.00004
 151 10  C  1S          0.00000   0.00093   0.00000   0.56295   0.00000
 152        2S          0.00000   0.00073   0.00000   0.46316  -0.00001
 153        2PX         0.00001   0.00037   0.00000   0.00045   0.00003
 154        2PY         0.00001   0.00018   0.00001   0.00015  -0.00002
 155        2PZ        -0.00001  -0.00024   0.00000  -0.00018  -0.00001
 156        3S          0.00001   0.00050  -0.00004   0.01954   0.00006
 157        3PX        -0.00003  -0.00091   0.00000  -0.00138  -0.00017
 158        3PY        -0.00005  -0.00041  -0.00002  -0.00078   0.00007
 159        3PZ         0.00002   0.00057   0.00000   0.00077  -0.00001
 160        4S         -0.00035   0.00363   0.00045  -0.01083   0.00028
 161        4PX        -0.00029   0.00094   0.00033  -0.00073  -0.00056
 162        4PY         0.00006  -0.00009   0.00023  -0.00119  -0.00050
 163        4PZ        -0.00013  -0.00070  -0.00002   0.00034  -0.00070
 164        5S         -0.00371   0.01684   0.00054  -0.02190  -0.00801
 165        5PX        -0.00059   0.00225   0.00006  -0.00271  -0.00056
 166        5PY        -0.00047   0.00349   0.00034  -0.00262  -0.00169
 167        5PZ         0.00041  -0.00077   0.00019   0.00230   0.00074
 168        6D 0       -0.00001   0.00008   0.00001   0.00011  -0.00010
 169        6D+1        0.00001   0.00060  -0.00001   0.00047   0.00006
 170        6D-1        0.00000   0.00036   0.00000   0.00034  -0.00003
 171        6D+2        0.00001  -0.00034   0.00001  -0.00011   0.00004
 172        6D-2       -0.00003  -0.00053   0.00002  -0.00051  -0.00009
 173 11  H  1S         -0.00001   0.00008  -0.00001  -0.00006  -0.00001
 174        2S         -0.00016  -0.00299  -0.00004  -0.00072   0.00001
 175        3S         -0.00090   0.00273   0.00065  -0.00147   0.00063
 176        4PX         0.00002   0.00192  -0.00001   0.00026   0.00002
 177        4PY        -0.00001  -0.00046   0.00002  -0.00007  -0.00005
 178        4PZ         0.00001   0.00088   0.00002   0.00013  -0.00001
 179 12  H  1S          0.00001   0.00002   0.00001  -0.00012   0.00001
 180        2S         -0.00019  -0.00243  -0.00007  -0.00011   0.00000
 181        3S         -0.00025   0.00184   0.00011  -0.00225   0.00042
 182        4PX        -0.00003  -0.00024  -0.00001  -0.00009   0.00000
 183        4PY        -0.00001  -0.00030  -0.00003  -0.00005   0.00000
 184        4PZ        -0.00005  -0.00205  -0.00001  -0.00021  -0.00002
 185 13  H  1S         -0.00001  -0.00003   0.00000   0.00022   0.00003
 186        2S          0.00005  -0.00106   0.00001  -0.00334  -0.00028
 187        3S          0.00025  -0.00079   0.00006   0.00361  -0.00003
 188        4PX         0.00002   0.00010  -0.00001   0.00039   0.00002
 189        4PY         0.00002  -0.00034   0.00000  -0.00204  -0.00002
 190        4PZ         0.00000  -0.00008   0.00000  -0.00038   0.00002
 191 14  H  1S          0.00000  -0.00009   0.00001   0.00020  -0.00001
 192        2S          0.00003  -0.00054  -0.00008  -0.00310   0.00022
 193        3S          0.00038  -0.00152  -0.00021   0.00428   0.00182
 194        4PX         0.00000   0.00006   0.00000   0.00019   0.00000
 195        4PY         0.00002   0.00006  -0.00002   0.00047   0.00007
 196        4PZ        -0.00001   0.00027   0.00002   0.00200  -0.00008
 197 15  H  1S          0.00001  -0.00007   0.00000   0.00024   0.00015
 198        2S         -0.00007  -0.00078  -0.00004  -0.00353  -0.00098
 199        3S         -0.00044  -0.00050   0.00048   0.00516   0.00015
 200        4PX        -0.00003  -0.00025   0.00001  -0.00188  -0.00004
 201        4PY        -0.00002   0.00013   0.00003   0.00067  -0.00013
 202        4PZ         0.00000  -0.00011   0.00000  -0.00075  -0.00002
 203 16  C  1S         -0.00008   0.00000   0.56299   0.00000   0.00000
 204        2S         -0.00006   0.00000   0.46317   0.00000  -0.00001
 205        2PX        -0.00001  -0.00001   0.00099   0.00000   0.00005
 206        2PY        -0.00002  -0.00001  -0.00061   0.00000  -0.00004
 207        2PZ         0.00000   0.00001  -0.00006  -0.00001  -0.00001
 208        3S         -0.00022  -0.00004   0.01963  -0.00008   0.00030
 209        3PX         0.00000   0.00004  -0.00159   0.00004  -0.00030
 210        3PY         0.00011   0.00003   0.00118   0.00002   0.00013
 211        3PZ         0.00001  -0.00004   0.00011   0.00002   0.00003
 212        4S          0.00205   0.00127  -0.01081   0.00177  -0.00501
 213        4PX         0.00041   0.00053  -0.00097   0.00050  -0.00043
 214        4PY        -0.00065  -0.00004   0.00080  -0.00040   0.00069
 215        4PZ        -0.00010   0.00003   0.00009  -0.00005   0.00006
 216        5S          0.01188  -0.00262  -0.01453  -0.00522  -0.00805
 217        5PX         0.00282  -0.00007  -0.00221  -0.00070   0.00036
 218        5PY        -0.00249   0.00079   0.00292   0.00138   0.00310
 219        5PZ        -0.00031   0.00054   0.00036  -0.00008   0.00010
 220        6D 0       -0.00004   0.00002   0.00054   0.00002  -0.00005
 221        6D+1        0.00000   0.00000   0.00010   0.00001   0.00000
 222        6D-1        0.00000  -0.00002  -0.00009   0.00000   0.00001
 223        6D+2        0.00004   0.00003  -0.00005   0.00000   0.00006
 224        6D-2        0.00001   0.00000   0.00102  -0.00001   0.00000
 225 17  H  1S          0.00000   0.00001   0.00015   0.00003  -0.00006
 226        2S         -0.00007  -0.00016  -0.00307  -0.00031   0.00061
 227        3S          0.00147   0.00038   0.00266   0.00142   0.00040
 228        4PX        -0.00003  -0.00002   0.00034   0.00000  -0.00002
 229        4PY         0.00002   0.00001   0.00092   0.00001  -0.00010
 230        4PZ         0.00002   0.00003   0.00184   0.00004  -0.00010
 231 18  H  1S          0.00000   0.00004   0.00016   0.00003  -0.00006
 232        2S         -0.00008  -0.00035  -0.00311  -0.00026   0.00069
 233        3S          0.00143   0.00131   0.00279   0.00106   0.00002
 234        4PX        -0.00003  -0.00001   0.00033  -0.00001  -0.00002
 235        4PY         0.00003   0.00001   0.00126   0.00003  -0.00011
 236        4PZ        -0.00002  -0.00005  -0.00164  -0.00003   0.00008
 237 19  H  1S          0.00002   0.00001   0.00019   0.00001  -0.00001
 238        2S         -0.00024  -0.00007  -0.00343  -0.00012  -0.00023
 239        3S          0.00211   0.00090   0.00307   0.00077   0.00202
 240        4PX        -0.00001   0.00000  -0.00187   0.00000   0.00007
 241        4PY        -0.00003  -0.00001  -0.00110   0.00000   0.00002
 242        4PZ         0.00000   0.00000  -0.00010   0.00000   0.00000
 243 20  Cl 1S          0.00000   0.00000   0.00000   0.00000  -0.12180
 244        2S          0.00000   0.00000   0.00000   0.00000  -0.32696
 245        3S          0.00001  -0.00002   0.00001   0.00001   0.49755
 246        4S         -0.00001   0.00005  -0.00002  -0.00001   0.61063
 247        5S          0.00006  -0.00019   0.00005   0.00002   0.05897
 248        6S         -0.00018   0.00052   0.00012   0.00016  -0.02532
 249        7S         -0.00177   0.00011   0.00006  -0.00095   0.01864
 250        7PX        -0.00056  -0.00002  -0.00013  -0.00029   0.00899
 251        7PY        -0.00026  -0.00008   0.00045  -0.00057   0.00127
 252        7PZ        -0.00001  -0.00012   0.00001  -0.00004   0.00024
 253        8PX        -0.00001   0.00001   0.00000   0.00001   0.00094
 254        8PY         0.00000   0.00000   0.00001  -0.00001   0.00021
 255        8PZ         0.00000  -0.00001   0.00000   0.00000   0.00003
 256        9PX         0.00000   0.00000   0.00000   0.00000  -0.00037
 257        9PY         0.00000   0.00000   0.00000   0.00000  -0.00007
 258        9PZ         0.00000   0.00000   0.00000   0.00000  -0.00001
 259       10PX         0.00004  -0.00005  -0.00001  -0.00004   0.00028
 260       10PY         0.00000  -0.00001  -0.00003   0.00004   0.00001
 261       10PZ         0.00000   0.00002   0.00000   0.00001   0.00001
 262       11PX        -0.00008   0.00009   0.00004   0.00011   0.00006
 263       11PY        -0.00001   0.00002   0.00009  -0.00010   0.00008
 264       11PZ        -0.00001  -0.00004   0.00001  -0.00001   0.00000
 265       12PX        -0.00023   0.00041   0.00010  -0.00007  -0.00514
 266       12PY         0.00008  -0.00010  -0.00053   0.00020  -0.00052
 267       12PZ         0.00001   0.00009  -0.00003  -0.00002  -0.00011
 268       13D 0        0.00001  -0.00001   0.00002   0.00001   0.00013
 269       13D+1        0.00000   0.00000   0.00000   0.00000  -0.00001
 270       13D-1        0.00000   0.00000   0.00000   0.00000   0.00000
 271       13D+2       -0.00002   0.00004   0.00004   0.00001  -0.00024
 272       13D-2        0.00002   0.00000  -0.00006   0.00002  -0.00001
                          11        12        13        14        15
                           O         O         O         O         O
     Eigenvalues --    -7.06798  -7.06742  -7.06724  -1.10119  -0.98403
   1 1   C  1S          0.00000   0.00000   0.00000  -0.03654   0.02367
   2        2S          0.00000   0.00000   0.00000  -0.05595   0.03638
   3        2PX         0.00000   0.00000   0.00000  -0.03610   0.01852
   4        2PY         0.00000   0.00000   0.00000  -0.00534   0.03151
   5        2PZ         0.00000   0.00000   0.00000   0.00009   0.00233
   6        3S          0.00000  -0.00001   0.00000   0.14078  -0.09338
   7        3PX         0.00002   0.00000   0.00000  -0.05283   0.03019
   8        3PY         0.00002   0.00000   0.00000  -0.00886   0.04942
   9        3PZ         0.00000   0.00000   0.00000  -0.00001   0.00377
  10        4S         -0.00021   0.00001  -0.00002   0.05350  -0.05554
  11        4PX         0.00002   0.00000   0.00001  -0.00579   0.00511
  12        4PY         0.00002   0.00000   0.00000   0.00084  -0.00016
  13        4PZ         0.00000   0.00000   0.00000   0.00024  -0.00059
  14        5S          0.00033   0.00016  -0.00015  -0.03892  -0.15404
  15        5PX        -0.00008  -0.00005   0.00004   0.00964   0.02759
  16        5PY        -0.00007   0.00006   0.00001  -0.00887  -0.02115
  17        5PZ        -0.00002   0.00001   0.00000  -0.00303  -0.00189
  18        6D 0        0.00000   0.00000   0.00000  -0.01079   0.00560
  19        6D+1        0.00000   0.00000   0.00000   0.00000  -0.00101
  20        6D-1        0.00000   0.00000   0.00000   0.00105  -0.00040
  21        6D+2        0.00000   0.00000   0.00000   0.00554  -0.00245
  22        6D-2        0.00000   0.00000   0.00000   0.00412  -0.01443
  23 2   C  1S          0.00000   0.00000   0.00000  -0.03626  -0.02528
  24        2S          0.00000   0.00000   0.00000  -0.05551  -0.03884
  25        2PX         0.00000   0.00000   0.00000  -0.02783  -0.03656
  26        2PY         0.00000   0.00000   0.00000  -0.02332   0.00562
  27        2PZ         0.00000   0.00000   0.00000  -0.00150   0.00098
  28        3S         -0.00001   0.00000   0.00000   0.13942   0.09949
  29        3PX         0.00002   0.00001   0.00000  -0.04116  -0.05806
  30        3PY         0.00000   0.00000   0.00000  -0.03341   0.00857
  31        3PZ         0.00000   0.00000   0.00000  -0.00220   0.00158
  32        4S         -0.00018  -0.00002   0.00001   0.05345   0.06134
  33        4PX         0.00005  -0.00002   0.00000  -0.00229  -0.00366
  34        4PY        -0.00005  -0.00002   0.00000  -0.00313  -0.00447
  35        4PZ         0.00000   0.00000   0.00000   0.00003  -0.00033
  36        5S          0.00021   0.00004   0.00008   0.03054   0.17981
  37        5PX        -0.00005  -0.00005  -0.00001  -0.00302  -0.00952
  38        5PY         0.00000  -0.00004  -0.00001  -0.00057  -0.03780
  39        5PZ         0.00001   0.00000   0.00001   0.00136  -0.00297
  40        6D 0        0.00000   0.00000   0.00000  -0.01073  -0.00608
  41        6D+1        0.00000   0.00000   0.00000   0.00018   0.00001
  42        6D-1        0.00000   0.00000   0.00000   0.00118  -0.00035
  43        6D+2        0.00000   0.00000   0.00000   0.00333   0.01398
  44        6D-2        0.00000   0.00000   0.00000   0.00594   0.00430
  45 3   C  1S          0.00000   0.00000   0.00000  -0.05463  -0.00109
  46        2S          0.00000   0.00000   0.00000  -0.08354  -0.00168
  47        2PX         0.00000   0.00000   0.00000   0.04554  -0.02654
  48        2PY         0.00000   0.00000   0.00000   0.01989   0.06145
  49        2PZ         0.00000   0.00000   0.00000   0.00102   0.00543
  50        3S          0.00000   0.00000   0.00000   0.21413   0.00473
  51        3PX        -0.00002   0.00002   0.00000   0.06722  -0.03786
  52        3PY        -0.00001   0.00000   0.00000   0.02979   0.08928
  53        3PZ         0.00000   0.00000  -0.00001   0.00145   0.00784
  54        4S         -0.00008  -0.00006   0.00001   0.06008  -0.00376
  55        4PX        -0.00060  -0.00012   0.00000  -0.01493  -0.00224
  56        4PY        -0.00013  -0.00002  -0.00001  -0.00932   0.00793
  57        4PZ        -0.00001   0.00000   0.00001  -0.00045   0.00072
  58        5S         -0.00049  -0.00029   0.00005   0.10377  -0.02404
  59        5PX        -0.00072  -0.00030   0.00002   0.03804  -0.03061
  60        5PY        -0.00010   0.00021  -0.00006  -0.01203   0.05499
  61        5PZ         0.00005   0.00000  -0.00002   0.00233   0.00180
  62        6D 0       -0.00001   0.00000   0.00000  -0.01578  -0.00008
  63        6D+1        0.00000   0.00000   0.00001  -0.00023   0.00155
  64        6D-1        0.00000   0.00000   0.00000   0.00204   0.00121
  65        6D+2        0.00002  -0.00001   0.00000   0.00262  -0.01752
  66        6D-2        0.00002   0.00000   0.00000   0.00200   0.01577
  67 4   N  1S          0.00000   0.00000   0.00000  -0.06878   0.07691
  68        2S          0.00000   0.00000   0.00000  -0.10787   0.12118
  69        2PX         0.00000   0.00000   0.00000  -0.00975  -0.00363
  70        2PY         0.00000   0.00000   0.00000   0.03124   0.00570
  71        2PZ         0.00000   0.00000   0.00000   0.00195   0.00176
  72        3S         -0.00002   0.00000   0.00000   0.29381  -0.33682
  73        3PX        -0.00001   0.00000   0.00000  -0.01348  -0.00735
  74        3PY        -0.00001   0.00000   0.00000   0.04453   0.01062
  75        3PZ         0.00000   0.00000   0.00000   0.00248   0.00305
  76        4S          0.00031   0.00005   0.00000   0.20299  -0.24681
  77        4PX         0.00000  -0.00001   0.00000  -0.00772  -0.00499
  78        4PY         0.00019   0.00004   0.00001   0.02256   0.02054
  79        4PZ         0.00001   0.00000   0.00000   0.00147   0.00263
  80        5S          0.00043   0.00007   0.00000  -0.07713   0.16831
  81        5PX        -0.00006  -0.00006   0.00003   0.01381  -0.02771
  82        5PY         0.00017  -0.00012   0.00007  -0.00027   0.06664
  83        5PZ         0.00003  -0.00002   0.00002  -0.00082   0.00748
  84        6D 0        0.00000   0.00000   0.00000  -0.00987   0.00739
  85        6D+1        0.00000   0.00000   0.00000  -0.00040   0.00011
  86        6D-1        0.00000   0.00000   0.00000   0.00172  -0.00140
[...]
    22. CR (   1) C   1                  1.99918   -10.12475  262(v),57(v),256(v),258(v)
                                                    252(g),60(v),108(v)
    23. CR (   1) C   2                  1.99918   -10.12303  263(v),40(v),255(v),252(g)
                                                    260(v),43(v),113(v)
    24. CR (   1) C   3                  1.99918   -10.13794  262(v),263(v),118(v),257(v)
                                                    254(v)
    25. CR (   1) N   4                  1.99927   -14.25481  41(v),74(v),142(v),75(v)
    26. CR (   1) N   8                  1.99927   -14.25614  59(v),201(v),77(v),75(v)
                                                    260(g)
    27. CR (   1) C   9                  1.99930   -10.12300  254(v),258(v),161(v)
    28. CR (   1) C  10                  1.99935   -10.04626  194(v)
    29. CR (   1) C  16                  1.99932   -10.10046  257(v),226(v),260(v)
    35. LP (   1) N   4                  1.51451    -0.31447  261(v),253(v),266(v),42(v)
                                                    78(v),264(v),76(v),265(v)
                                                    141(v),77(v)
    40. RY*(   1) C   1                  0.00411     1.44580   
    41. RY*(   2) C   1                  0.00187     0.89162   
    42. RY*(   3) C   1                  0.00184     0.95789   
    43. RY*(   4) C   1                  0.00088     0.85575   
    44. RY*(   5) C   1                  0.00058     1.14529   
    45. RY*(   6) C   1                  0.00045     0.60288   
    46. RY*(   7) C   1                  0.00025     2.17100   
    47. RY*(   8) C   1                  0.00020     1.12160   
    48. RY*(   9) C   1                  0.00010     2.03706   
    49. RY*(  10) C   1                  0.00008     1.19679   
    50. RY*(  11) C   1                  0.00004     2.04845   
    51. RY*(  12) C   1                  0.00003     2.02400   
    52. RY*(  13) C   1                  0.00001     3.66260   
    53. RY*(  14) C   1                  0.00001     1.65174   
    54. RY*(  15) C   1                  0.00000    20.25509   
    55. RY*(  16) C   1                  0.00000     2.27360   
    56. RY*(  17) C   1                  0.00001     1.85573   
    57. RY*(   1) C   2                  0.00401     1.46920   
    58. RY*(   2) C   2                  0.00192     0.87678   
    59. RY*(   3) C   2                  0.00181     0.90254   
    60. RY*(   4) C   2                  0.00086     0.96833   
    61. RY*(   5) C   2                  0.00056     1.30080   
    62. RY*(   6) C   2                  0.00044     0.46618   
    63. RY*(   7) C   2                  0.00024     1.73714   
    64. RY*(   8) C   2                  0.00013     2.54462   
    65. RY*(   9) C   2                  0.00013     0.37693   
    66. RY*(  10) C   2                  0.00009     1.43309   
    67. RY*(  11) C   2                  0.00005     2.10477   
    68. RY*(  12) C   2                  0.00003     1.82353   
    69. RY*(  13) C   2                  0.00001     1.98923   
    70. RY*(  14) C   2                  0.00001     3.19137   
    71. RY*(  15) C   2                  0.00000     1.35236   
    72. RY*(  16) C   2                  0.00000     2.59373   
    73. RY*(  17) C   2                  0.00000    21.01138   
    74. RY*(   1) C   3                  0.00539     1.10941   
    75. RY*(   2) C   3                  0.00453     0.91559   
    76. RY*(   3) C   3                  0.00375     0.61519   
    77. RY*(   4) C   3                  0.00245     0.87182   
    78. RY*(   5) C   3                  0.00225     1.39645   
    79. RY*(   6) C   3                  0.00075     0.36297   
    80. RY*(   7) C   3                  0.00050     0.84967   
    81. RY*(   8) C   3                  0.00043     0.75228   
    82. RY*(   9) C   3                  0.00023     1.14509   
    83. RY*(  10) C   3                  0.00019     3.02572   
    84. RY*(  11) C   3                  0.00015     2.45037   
    85. RY*(  12) C   3                  0.00010     1.69131   
    86. RY*(  13) C   3                  0.00008     2.08392   
    87. RY*(  14) C   3                  0.00005     3.71093   
    88. RY*(  15) C   3                  0.00000    20.94864   
    89. RY*(  16) C   3                  0.00000     2.67747   
    90. RY*(  17) C   3                  0.00001     2.08165   
    91. RY*(   1) N   4                  0.00366     0.91469   
    92. RY*(   2) N   4                  0.00294     1.60207   
    93. RY*(   3) N   4                  0.00150     1.27651   
    94. RY*(   4) N   4                  0.00071     1.75533   
    95. RY*(   5) N   4                  0.00063     1.34809   
    96. RY*(   6) N   4                  0.00038     1.66666   
    97. RY*(   7) N   4                  0.00030     1.41726   
    98. RY*(   8) N   4                  0.00024     1.63657   
    99. RY*(   9) N   4                  0.00017     1.98443   
   100. RY*(  10) N   4                  0.00009     1.92712   
   101. RY*(  11) N   4                  0.00003     1.73085   
   102. RY*(  12) N   4                  0.00003     4.14581   
   103. RY*(  13) N   4                  0.00004     3.13063   
   104. RY*(  14) N   4                  0.00001     3.13580   
   105. RY*(  15) N   4                  0.00001     1.29379   
   106. RY*(  16) N   4                  0.00000     3.71835   
   107. RY*(  17) N   4                  0.00000    34.74207   
   108. RY*(   1) H   5                  0.00058     0.90514   
   109. RY*(   2) H   5                  0.00025     1.54784   
   110. RY*(   3) H   5                  0.00021     1.97942   
   111. RY*(   4) H   5                  0.00005     1.72199   
   112. RY*(   5) H   5                  0.00004     2.53739   
   113. RY*(   1) H   6                  0.00048     0.95097   
   114. RY*(   2) H   6                  0.00023     1.55516   
   115. RY*(   3) H   6                  0.00022     1.94385   
   116. RY*(   4) H   6                  0.00004     2.28485   
   117. RY*(   5) H   6                  0.00004     1.95554   
   118. RY*(   1) H   7                  0.00357     1.49539   
   119. RY*(   2) H   7                  0.00046     1.61980   
   120. RY*(   3) H   7                  0.00025     1.59781   
   121. RY*(   4) H   7                  0.00014     2.05868   
   122. RY*(   5) H   7                  0.00010     2.34749   
   123. RY*(   1) N   8                  0.00308     1.64683   
   124. RY*(   2) N   8                  0.00178     1.00311   
   125. RY*(   3) N   8                  0.00172     1.19663   
   126. RY*(   4) N   8                  0.00068     1.89681   
   127. RY*(   5) N   8                  0.00059     1.25528   
   128. RY*(   6) N   8                  0.00039     1.88926   
   129. RY*(   7) N   8                  0.00033     1.96875   
   130. RY*(   8) N   8                  0.00023     1.22472   
   131. RY*(   9) N   8                  0.00012     1.48917   
   132. RY*(  10) N   8                  0.00006     2.34345   
   133. RY*(  11) N   8                  0.00003     1.66619   
   134. RY*(  12) N   8                  0.00003     0.95852   
   135. RY*(  13) N   8                  0.00004     3.72083   
   136. RY*(  14) N   8                  0.00002     3.81795   
   137. RY*(  15) N   8                  0.00000     3.55427   
   138. RY*(  16) N   8                  0.00000    34.70817   
   139. RY*(  17) N   8                  0.00001     3.02641   
   140. RY*(   1) C   9                  0.00355     0.79068   
   141. RY*(   2) C   9                  0.00201     0.82997   
   142. RY*(   3) C   9                  0.00114     0.86222   
   143. RY*(   4) C   9                  0.00069     1.60145   
   144. RY*(   5) C   9                  0.00050     1.31349   
   145. RY*(   6) C   9                  0.00040     1.21782   
   146. RY*(   7) C   9                  0.00032     1.41854   
   147. RY*(   8) C   9                  0.00012     1.38354   
   148. RY*(   9) C   9                  0.00008     0.54163   
   149. RY*(  10) C   9                  0.00009     2.03192   
   150. RY*(  11) C   9                  0.00003     1.59160   
   151. RY*(  12) C   9                  0.00002     1.85569   
   152. RY*(  13) C   9                  0.00002     1.83990   
   153. RY*(  14) C   9                  0.00000     1.75202   
   154. RY*(  15) C   9                  0.00001     2.04366   
   155. RY*(  16) C   9                  0.00001     2.60837   
   156. RY*(  17) C   9                  0.00000    22.69910   
   157. RY*(   1) C  10                  0.00163     0.73315   
   158. RY*(   2) C  10                  0.00111     0.69743   
   159. RY*(   3) C  10                  0.00064     1.10247   
   160. RY*(   4) C  10                  0.00026     0.44112   
   161. RY*(   5) C  10                  0.00020     0.63135   
   162. RY*(   6) C  10                  0.00015     0.51352   
   163. RY*(   7) C  10                  0.00009     1.22793   
   164. RY*(   8) C  10                  0.00002     2.37194   
   165. RY*(   9) C  10                  0.00002     1.85113   
   166. RY*(  10) C  10                  0.00002     1.10602   
   167. RY*(  11) C  10                  0.00000    23.24188   
   168. RY*(  12) C  10                  0.00000     2.64000   
   169. RY*(  13) C  10                  0.00000     2.60507   
   170. RY*(  14) C  10                  0.00000     2.07662   
   171. RY*(  15) C  10                  0.00000     1.87209   
   172. RY*(  16) C  10                  0.00001     1.37311   
   173. RY*(  17) C  10                  0.00000     2.25586   
   174. RY*(   1) H  11                  0.00096     0.72277   
   175. RY*(   2) H  11                  0.00014     1.95972   
   176. RY*(   3) H  11                  0.00009     1.75667   
   177. RY*(   4) H  11                  0.00006     1.84873   
   178. RY*(   5) H  11                  0.00004     2.56970   
   179. RY*(   1) H  12                  0.00099     0.79219   
   180. RY*(   2) H  12                  0.00015     1.88609   
   181. RY*(   3) H  12                  0.00012     1.77567   
   182. RY*(   4) H  12                  0.00007     2.26534   
   183. RY*(   5) H  12                  0.00004     2.24739   
   184. RY*(   1) H  13                  0.00057     0.77692   
   185. RY*(   2) H  13                  0.00015     1.63650   
   186. RY*(   3) H  13                  0.00009     1.86305   
   187. RY*(   4) H  13                  0.00007     1.94272   
   188. RY*(   5) H  13                  0.00001     2.63459   
   189. RY*(   1) H  14                  0.00108     0.75676   
   190. RY*(   2) H  14                  0.00014     1.76972   
   191. RY*(   3) H  14                  0.00009     1.84721   
   192. RY*(   4) H  14                  0.00006     1.91223   
   193. RY*(   5) H  14                  0.00003     2.65512   
   194. RY*(   1) H  15                  0.00108     0.86692   
   195. RY*(   2) H  15                  0.00011     1.79590   
   196. RY*(   3) H  15                  0.00012     1.86813   
   197. RY*(   4) H  15                  0.00005     1.86062   
   198. RY*(   5) H  15                  0.00003     2.63480   
   199. RY*(   1) C  16                  0.00266     0.73796   
   200. RY*(   2) C  16                  0.00153     0.76976   
   201. RY*(   3) C  16                  0.00072     1.04146   
   202. RY*(   4) C  16                  0.00049     0.39038   
   203. RY*(   5) C  16                  0.00026     0.56653   
   204. RY*(   6) C  16                  0.00015     0.63139   
   205. RY*(   7) C  16                  0.00010     1.14597   
   206. RY*(   8) C  16                  0.00009     1.34130   
   207. RY*(   9) C  16                  0.00006     2.09408   
   208. RY*(  10) C  16                  0.00002     1.95962   
   209. RY*(  11) C  16                  0.00000    22.63896   
   210. RY*(  12) C  16                  0.00000     3.11727   
   211. RY*(  13) C  16                  0.00001     1.92972   
   212. RY*(  14) C  16                  0.00000     3.12880   
   213. RY*(  15) C  16                  0.00001     1.03960   
   214. RY*(  16) C  16                  0.00000     1.72801   
   215. RY*(  17) C  16                  0.00000     1.89744   
   216. RY*(   1) H  17                  0.00050     0.77355   
   217. RY*(   2) H  17                  0.00016     1.82230   
   218. RY*(   3) H  17                  0.00012     1.73553   
   219. RY*(   4) H  17                  0.00006     1.89200   
   220. RY*(   5) H  17                  0.00003     2.58093   
   221. RY*(   1) H  18                  0.00050     0.77382   
   222. RY*(   2) H  18                  0.00016     1.82860   
   223. RY*(   3) H  18                  0.00012     1.73179   
   224. RY*(   4) H  18                  0.00004     2.17288   
   225. RY*(   5) H  18                  0.00005     2.29459   
   226. RY*(   1) H  19                  0.00159     0.82959   
   227. RY*(   2) H  19                  0.00011     2.03749   
   228. RY*(   3) H  19                  0.00008     1.86054   
   229. RY*(   4) H  19                  0.00008     1.73652   
   230. RY*(   5) H  19                  0.00003     2.42878   
   252. BD*(   1) C   1 - C   2          0.00869     0.53788   
   253. BD*(   2) C   1 - C   2          0.25862    -0.03541  261(v),44(g),61(g)
   254. BD*(   1) C   1 - N   4          0.02496     0.37796   
   255. BD*(   1) C   1 - H   5          0.00986     0.36992   
   256. BD*(   1) C   2 - H   6          0.00969     0.37045   
   257. BD*(   1) C   2 - N   8          0.02576     0.38286   
   258. BD*(   1) C   3 - N   4          0.02388     0.44575   
   259. BD*(   1) C   3 - H   7          0.11903     0.36376  254(v),118(g),257(v),255(r)
                                                    256(r),258(g),269(r),263(v)
                                                    77(g),262(v),272(r),260(g)
                                                    79(g),90(g),88(g),231(r)
                                                    233(r),235(r),232(r)
   260. BD*(   1) C   3 - N   8          0.01940     0.45231   
   261. BD*(   2) C   3 - N   8          0.46389    -0.07519  253(v),76(g),129(g),270(v)
                                                    271(v)
   262. BD*(   1) N   4 - C   9          0.03196     0.26984   
   263. BD*(   1) N   8 - C  16          0.01544     0.28029   
   264. BD*(   1) C   9 - C  10          0.00506     0.35143   
   265. BD*(   1) C   9 - H  11          0.01388     0.34762   
   266. BD*(   1) C   9 - H  12          0.01847     0.35390   
   267. BD*(   1) C  10 - H  13          0.00408     0.37774   
   268. BD*(   1) C  10 - H  14          0.00705     0.37768   
   269. BD*(   1) C  10 - H  15          0.01020     0.40546   
   270. BD*(   1) C  16 - H  17          0.00832     0.35477   
   271. BD*(   1) C  16 - H  18          0.00811     0.35485   
   272. BD*(   1) C  16 - H  19          0.01314     0.39002   
       -------------------------------
              Total Lewis   58.96284  ( 98.0106%)
        Valence non-Lewis    1.09951  (  1.8277%)
        Rydberg non-Lewis    0.09728  (  0.1617%)
       -------------------------------
            Total unit  1   60.15963  (100.0000%)
           Charge unit  1    0.84037

 Molecular unit  2  (Cl)
    30. CR (   1)Cl  20                  2.00000  -100.75321  259(r)
    31. CR (   2)Cl  20                  1.99998    -9.78300  259(r),118(r)
    32. CR (   3)Cl  20                  1.99999    -7.06627  259(r)
    33. CR (   4)Cl  20                  2.00000    -7.06581   
    34. CR (   5)Cl  20                  2.00000    -7.06565   
    36. LP (   1)Cl  20                  1.99882    -0.71080  259(r),272(r),118(r),122(r)
    37. LP (   2)Cl  20                  1.98738    -0.19667  261(r),120(r),76(r)
    38. LP (   3)Cl  20                  1.98108    -0.19873  272(r),269(r),258(r),260(r)
    39. LP (   4)Cl  20                  1.87215    -0.28542  259(r),119(r),272(r),258(r)
                                                    118(r),75(r),194(r),269(r)
                                                    87(r),88(r),82(r)
   231. RY*(   1)Cl  20                  0.00032     0.90415   
   232. RY*(   2)Cl  20                  0.00024     0.77133   
   233. RY*(   3)Cl  20                  0.00020     0.56708   
   234. RY*(   4)Cl  20                  0.00010     0.28630   
   235. RY*(   5)Cl  20                  0.00007     0.66306   
   236. RY*(   6)Cl  20                  0.00002     1.02781   
   237. RY*(   7)Cl  20                  0.00000     3.77076   
   238. RY*(   8)Cl  20                  0.00000    24.42833   
   239. RY*(   9)Cl  20                  0.00000   206.52361   
   240. RY*(  10)Cl  20                  0.00000     0.75033   
   241. RY*(  11)Cl  20                  0.00000     3.66007   
   242. RY*(  12)Cl  20                  0.00000    24.43873   
   243. RY*(  13)Cl  20                  0.00000     1.00646   
   244. RY*(  14)Cl  20                  0.00000     0.58188   
   245. RY*(  15)Cl  20                  0.00000     3.79398   
   246. RY*(  16)Cl  20                  0.00000    24.44906   
   247. RY*(  17)Cl  20                  0.00000    18.23541   
   248. RY*(  18)Cl  20                  0.00000     0.90138   
   249. RY*(  19)Cl  20                  0.00000     1.00469   
   250. RY*(  20)Cl  20                  0.00001     1.26684   
   251. RY*(  21)Cl  20                  0.00000     0.89225   
       -------------------------------
              Total Lewis   17.83940  ( 99.9946%)
        Valence non-Lewis    0.00000  (  0.0000%)
        Rydberg non-Lewis    0.00097  (  0.0054%)
       -------------------------------
            Total unit  2   17.84037  (100.0000%)
           Charge unit  2   -0.84037
 1\1\GINC-CX1-9-15-2\SP\RB3LYP\6-311+G(d,p)\C6H11Cl1N2\CJS14\20-Apr-201
 5\0\\# pop(nbo,full) GFInput b3lyp/6-311+g(d,p) geom=checkpoint integr
 al=grid=ultrafine scf=conver=9 empiricaldispersion=gd3bj\\Emim+ (optim
 ised with b3lyp+gd3bj / aug-cc-pvtz) and Cl- in the front position cre
 ated on; Thu Apr 16 19:11:59 BST 2015, from; CJS1_emim-cl_F_init.com c
 reated on; Fri Apr 17 20:54:17 BST 2015, from; CJS1_emim-cl_F_6-311+g-
 d-p-_gd3bj_opt-modredundant_difrz.com created on; Mon Apr 20 15:19:46 
 BST 2015, from; CJS1_emim-cl_F_6-311+g-d-p-_gd3bj_opt-modredundant_unf
 rz.com\\0,1\C,0,-0.4554378524,1.9330544864,-0.505844945\C,0,-1.7814012
 224,1.7002097089,-0.3063238643\C,0,-0.6911790879,-0.1964550265,0.08137
 56662\N,0,0.2047476866,0.7395307073,-0.2553486387\H,0,0.0668673799,2.8
 28376291,-0.7942858713\H,0,-2.631188034,2.3557123448,-0.3832240179\H,0
 ,-0.537660432,-1.2770301498,0.3406700322\N,0,-1.9022629826,0.369628938
 3,0.0569550683\C,0,1.653834887,0.4938309078,-0.4011893888\C,0,2.171289
 7996,-0.5075338324,0.6229828047\H,0,2.1429892065,1.4631207205,-0.29130
 89407\H,0,1.8305892174,0.1400830549,-1.4198219644\H,0,3.2433016924,-0.
 6472610431,0.4697707283\H,0,2.012606803,-0.1422560633,1.6398521556\H,0
 ,1.6825792399,-1.4801261475,0.5294772913\C,0,-3.1360221018,-0.35713223
 89,0.3827000724\H,0,-3.6105924702,0.1035760977,1.2492402382\H,0,-3.809
 4384834,-0.3283677701,-0.4739244042\H,0,-2.8577674247,-1.3893382126,0.
 6092254073\Cl,0,-0.8353218109,-3.1612729734,0.8252325109\\Version=ES64
 L-G09RevD.01\State=1-A\HF=-805.1175208\RMSD=3.290e-10\Dipole=0.1493265
 ,4.7300295,-1.1575\Quadrupole=14.0435212,-14.0077968,-0.0357244,-2.175
 5347,-0.7435,2.8978929\PG=C01 [X(C6H11Cl1N2)]\\@


 THE DIFFERENCE BETWEEN A NOOSE AND A HALO IS ONLY 12 INCHES.
 Job cpu time:       0 days  0 hours  7 minutes 38.8 seconds.
 File lengths (MBytes):  RWF=     29 Int=      0 D2E=      0 Chk=      6 Scr=      1
 Normal termination of Gaussian 09 at Mon Apr 20 15:26:45 2015.
