 Entering Gaussian System, Link 0=g09
 Input=/work/cjs14/CJS_emim_6311_plus_d3_scan_bck.com
 Output=/work/cjs14/CJS_emim_6311_plus_d3_scan_bck.log
 Initial command:
 /apps/gaussian/g09_d01/g09/l1.exe "/tmp/pbs.8722135.cx1b/Gau-3408.inp" -scrdir="/tmp/pbs.8722135.cx1b/"
 Entering Link 1 = /apps/gaussian/g09_d01/g09/l1.exe PID=      3409.
  
 Copyright (c) 1988,1990,1992,1993,1995,1998,2003,2009,2013,
            Gaussian, Inc.  All Rights Reserved.
  
 This is part of the Gaussian(R) 09 program.  It is based on
 the Gaussian(R) 03 system (copyright 2003, Gaussian, Inc.),
 the Gaussian(R) 98 system (copyright 1998, Gaussian, Inc.),
 the Gaussian(R) 94 system (copyright 1995, Gaussian, Inc.),
 the Gaussian 92(TM) system (copyright 1992, Gaussian, Inc.),
 the Gaussian 90(TM) system (copyright 1990, Gaussian, Inc.),
 the Gaussian 88(TM) system (copyright 1988, Gaussian, Inc.),
 the Gaussian 86(TM) system (copyright 1986, Carnegie Mellon
 University), and the Gaussian 82(TM) system (copyright 1983,
 Carnegie Mellon University). Gaussian is a federally registered
 trademark of Gaussian, Inc.
  
 This software contains proprietary and confidential information,
 including trade secrets, belonging to Gaussian, Inc.
  
 This software is provided under written license and may be
 used, copied, transmitted, or stored only in accord with that
 written license.
  
 The following legend is applicable only to US Government
 contracts under FAR:
  
                    RESTRICTED RIGHTS LEGEND
  
 Use, reproduction and disclosure by the US Government is
 subject to restrictions as set forth in subparagraphs (a)
 and (c) of the Commercial Computer Software - Restricted
 Rights clause in FAR 52.227-19.
  
 Gaussian, Inc.
 340 Quinnipiac St., Bldg. 40, Wallingford CT 06492
  
  
 ---------------------------------------------------------------
 Warning -- This program may not be used in any manner that
 competes with the business of Gaussian, Inc. or will provide
 assistance to any competitor of Gaussian, Inc.  The licensee
 of this program is prohibited from giving any competitor of
 Gaussian, Inc. access to this program.  By using this program,
 the user acknowledges that Gaussian, Inc. is engaged in the
 business of creating and licensing software in the field of
 computational chemistry and represents and warrants to the
 licensee that it is not a competitor of Gaussian, Inc. and that
 it will not use this program in any manner prohibited above.
 ---------------------------------------------------------------
  

 Cite this work as:
 Gaussian 09, Revision D.01,
 M. J. Frisch, G. W. Trucks, H. B. Schlegel, G. E. Scuseria, 
 M. A. Robb, J. R. Cheeseman, G. Scalmani, V. Barone, B. Mennucci, 
 G. A. Petersson, H. Nakatsuji, M. Caricato, X. Li, H. P. Hratchian, 
 A. F. Izmaylov, J. Bloino, G. Zheng, J. L. Sonnenberg, M. Hada, 
 M. Ehara, K. Toyota, R. Fukuda, J. Hasegawa, M. Ishida, T. Nakajima, 
 Y. Honda, O. Kitao, H. Nakai, T. Vreven, J. A. Montgomery, Jr., 
 J. E. Peralta, F. Ogliaro, M. Bearpark, J. J. Heyd, E. Brothers, 
 K. N. Kudin, V. N. Staroverov, T. Keith, R. Kobayashi, J. Normand, 
 K. Raghavachari, A. Rendell, J. C. Burant, S. S. Iyengar, J. Tomasi, 
 M. Cossi, N. Rega, J. M. Millam, M. Klene, J. E. Knox, J. B. Cross, 
 V. Bakken, C. Adamo, J. Jaramillo, R. Gomperts, R. E. Stratmann, 
 O. Yazyev, A. J. Austin, R. Cammi, C. Pomelli, J. W. Ochterski, 
 R. L. Martin, K. Morokuma, V. G. Zakrzewski, G. A. Voth, 
 P. Salvador, J. J. Dannenberg, S. Dapprich, A. D. Daniels, 
 O. Farkas, J. B. Foresman, J. V. Ortiz, J. Cioslowski, 
 and D. J. Fox, Gaussian, Inc., Wallingford CT, 2013.
 
 ******************************************
 Gaussian 09:  ES64L-G09RevD.01 24-Apr-2013
                27-Jan-2015 
 ******************************************
 %nprocshared=4
 Will use up to    4 processors via shared memory.
 %mem=7500MB
 %chk=CJS_emim_6311_plus_d3_scan_bck.chk
 ----------------------------------------------------------------------
 # opt=modredundant b3lyp/6-311+g(d,p) geom=checkpoint scf=conver=9 int
 egral=grid=ultrafine EmpiricalDispersion=gd3bj
 ----------------------------------------------------------------------
 1/14=-1,18=120,19=15,26=4,29=2,38=1/1,3;
 2/9=110,12=2,40=1/2;
 3/5=4,6=6,7=111,11=2,14=-4,16=1,25=1,30=1,71=1,74=-5,75=-5,124=41/1,2,3;
 4//1;
 5/5=2,6=9,38=5/2;
 6/7=2,8=2,9=2,10=2,28=1/1;
 7//1,2,3,16;
 1/14=-1,18=20,19=15,26=4/3(2);
 2/9=110/2;
 99//99;
 2/9=110/2;
 3/5=4,6=6,7=111,11=2,14=-2,16=1,25=1,30=1,71=1,74=-5,75=-5,124=41/1,2,3;
 4/5=5,16=3,69=1/1;
 5/5=2,6=9,38=5/2;
 7//1,2,3,16;
 1/14=-1,18=20,19=15,26=4/3(-5);
 2/9=110/2;
 6/7=2,8=2,9=2,10=2,19=2,28=1/1;
 99/9=1/99;
 -------------------------------
 EMIM PES scan of ethyl rotation
 -------------------------------
 Structure from the checkpoint file:  "CJS_emim_6311_plus_d3_scan_bck.chk"
 Charge =  1 Multiplicity = 1
 Redundant internal coordinates found in file.
 C,0,-0.158404902,1.3063218838,0.0874441171
 C,0,1.1819355682,1.2155251402,-0.1327207413
 C,0,0.4106569175,-0.8209192643,0.2356627078
 N,0,-0.6208674171,0.0245269202,0.3183969854
 H,0,-0.8112054318,2.1618673686,0.103904745
 H,0,1.9152851046,1.9755949921,-0.3409784945
 H,0,0.3592271128,-1.8884165681,0.3690667795
 N,0,1.5184514003,-0.1221370022,-0.0364162242
 C,0,-2.0325363454,-0.3534999255,0.5610639039
 C,0,-2.8732308752,-0.2554645764,-0.705697177
 H,0,-2.4051742748,0.3037676539,1.3476751428
 H,0,-2.0201716178,-1.3689882194,0.957389843
 H,0,-3.8995978921,-0.5478977484,-0.477582606
 H,0,-2.8940640501,0.7641232664,-1.0951794912
 H,0,-2.4933496938,-0.9196908751,-1.4843560442
 C,0,2.8697102493,-0.6770974513,-0.1963434327
 H,0,3.242841885,-0.4379501075,-1.1913038097
 H,0,3.5268690113,-0.2545062102,0.5626524488
 H,0,2.8238672513,-1.7572792767,-0.0760886523
 Recover connectivity data from disk.
 The following ModRedundant input section has been read:
 D       1       4       9      10 S  18 -10.00                                
 

 GradGradGradGradGradGradGradGradGradGradGradGradGradGradGradGradGradGrad
 Berny optimization.
 Initialization pass.
                           ----------------------------
                           !    Initial Parameters    !
                           ! (Angstroms and Degrees)  !
 --------------------------                            --------------------------
 ! Name  Definition              Value          Derivative Info.                !
 --------------------------------------------------------------------------------
 ! R1    R(1,2)                  1.3613         estimate D2E/DX2                !
 ! R2    R(1,4)                  1.3821         estimate D2E/DX2                !
 ! R3    R(1,5)                  1.0763         estimate D2E/DX2                !
 ! R4    R(2,6)                  1.0765         estimate D2E/DX2                !
 ! R5    R(2,8)                  1.3827         estimate D2E/DX2                !
 ! R6    R(3,4)                  1.3363         estimate D2E/DX2                !
 ! R7    R(3,7)                  1.077          estimate D2E/DX2                !
 ! R8    R(3,8)                  1.3377         estimate D2E/DX2                !
 ! R9    R(4,9)                  1.4814         estimate D2E/DX2                !
 ! R10   R(8,16)                 1.4695         estimate D2E/DX2                !
 ! R11   R(9,10)                 1.5235         estimate D2E/DX2                !
 ! R12   R(9,11)                 1.0907         estimate D2E/DX2                !
 ! R13   R(9,12)                 1.0902         estimate D2E/DX2                !
 ! R14   R(10,13)                1.0913         estimate D2E/DX2                !
 ! R15   R(10,14)                1.0916         estimate D2E/DX2                !
 ! R16   R(10,15)                1.0917         estimate D2E/DX2                !
 ! R17   R(16,17)                1.0892         estimate D2E/DX2                !
 ! R18   R(16,18)                1.0893         estimate D2E/DX2                !
 ! R19   R(16,19)                1.0878         estimate D2E/DX2                !
 ! A1    A(2,1,4)              107.1345         estimate D2E/DX2                !
 ! A2    A(2,1,5)              130.7434         estimate D2E/DX2                !
 ! A3    A(4,1,5)              122.1212         estimate D2E/DX2                !
 ! A4    A(1,2,6)              130.9134         estimate D2E/DX2                !
 ! A5    A(1,2,8)              107.0306         estimate D2E/DX2                !
 ! A6    A(6,2,8)              122.0548         estimate D2E/DX2                !
 ! A7    A(4,3,7)              125.6303         estimate D2E/DX2                !
 ! A8    A(4,3,8)              108.7446         estimate D2E/DX2                !
 ! A9    A(7,3,8)              125.6248         estimate D2E/DX2                !
 ! A10   A(1,4,3)              108.5495         estimate D2E/DX2                !
 ! A11   A(1,4,9)              125.6537         estimate D2E/DX2                !
 ! A12   A(3,4,9)              125.7523         estimate D2E/DX2                !
 ! A13   A(2,8,3)              108.5403         estimate D2E/DX2                !
 ! A14   A(2,8,16)             125.5604         estimate D2E/DX2                !
 ! A15   A(3,8,16)             125.8977         estimate D2E/DX2                !
 ! A16   A(4,9,10)             111.9139         estimate D2E/DX2                !
 ! A17   A(4,9,11)             106.8537         estimate D2E/DX2                !
 ! A18   A(4,9,12)             106.6452         estimate D2E/DX2                !
 ! A19   A(10,9,11)            111.8611         estimate D2E/DX2                !
 ! A20   A(10,9,12)            111.6221         estimate D2E/DX2                !
 ! A21   A(11,9,12)            107.6391         estimate D2E/DX2                !
 ! A22   A(9,10,13)            109.1431         estimate D2E/DX2                !
 ! A23   A(9,10,14)            111.5486         estimate D2E/DX2                !
 ! A24   A(9,10,15)            111.216          estimate D2E/DX2                !
 ! A25   A(13,10,14)           107.8727         estimate D2E/DX2                !
 ! A26   A(13,10,15)           108.2589         estimate D2E/DX2                !
 ! A27   A(14,10,15)           108.6891         estimate D2E/DX2                !
 ! A28   A(8,16,17)            109.36           estimate D2E/DX2                !
 ! A29   A(8,16,18)            109.4151         estimate D2E/DX2                !
 ! A30   A(8,16,19)            108.9181         estimate D2E/DX2                !
 ! A31   A(17,16,18)           110.1602         estimate D2E/DX2                !
 ! A32   A(17,16,19)           109.4776         estimate D2E/DX2                !
 ! A33   A(18,16,19)           109.4892         estimate D2E/DX2                !
 ! D1    D(4,1,2,6)           -179.4638         estimate D2E/DX2                !
 ! D2    D(4,1,2,8)              0.1533         estimate D2E/DX2                !
 ! D3    D(5,1,2,6)              0.1928         estimate D2E/DX2                !
 ! D4    D(5,1,2,8)            179.8099         estimate D2E/DX2                !
 ! D5    D(2,1,4,3)             -0.2141         estimate D2E/DX2                !
 ! D6    D(2,1,4,9)           -177.8972         estimate D2E/DX2                !
 ! D7    D(5,1,4,3)           -179.9069         estimate D2E/DX2                !
 ! D8    D(5,1,4,9)              2.41           estimate D2E/DX2                !
 ! D9    D(1,2,8,3)             -0.04           estimate D2E/DX2                !
 ! D10   D(1,2,8,16)          -179.5961         estimate D2E/DX2                !
 ! D11   D(6,2,8,3)            179.6186         estimate D2E/DX2                !
 ! D12   D(6,2,8,16)             0.0625         estimate D2E/DX2                !
 ! D13   D(7,3,4,1)           -179.9843         estimate D2E/DX2                !
 ! D14   D(7,3,4,9)             -2.3041         estimate D2E/DX2                !
 ! D15   D(8,3,4,1)              0.1911         estimate D2E/DX2                !
 ! D16   D(8,3,4,9)            177.8714         estimate D2E/DX2                !
 ! D17   D(4,3,8,2)             -0.0944         estimate D2E/DX2                !
 ! D18   D(4,3,8,16)           179.4599         estimate D2E/DX2                !
 ! D19   D(7,3,8,2)           -179.9189         estimate D2E/DX2                !
 ! D20   D(7,3,8,16)            -0.3647         estimate D2E/DX2                !
 ! D21   D(1,4,9,10)            72.1144         Scan                            !
 ! D22   D(1,4,9,11)           -50.6535         estimate D2E/DX2                !
 ! D23   D(1,4,9,12)          -165.5537         estimate D2E/DX2                !
 ! D24   D(3,4,9,10)          -105.1787         estimate D2E/DX2                !
 ! D25   D(3,4,9,11)           132.0534         estimate D2E/DX2                !
 ! D26   D(3,4,9,12)            17.1532         estimate D2E/DX2                !
 ! D27   D(2,8,16,17)          -59.8536         estimate D2E/DX2                !
 ! D28   D(2,8,16,18)           60.8881         estimate D2E/DX2                !
 ! D29   D(2,8,16,19)         -179.4593         estimate D2E/DX2                !
 ! D30   D(3,8,16,17)          120.6659         estimate D2E/DX2                !
 ! D31   D(3,8,16,18)         -118.5923         estimate D2E/DX2                !
 ! D32   D(3,8,16,19)            1.0602         estimate D2E/DX2                !
 ! D33   D(4,9,10,13)          179.6959         estimate D2E/DX2                !
 ! D34   D(4,9,10,14)          -61.2027         estimate D2E/DX2                !
 ! D35   D(4,9,10,15)           60.3214         estimate D2E/DX2                !
 ! D36   D(11,9,10,13)         -60.4283         estimate D2E/DX2                !
 ! D37   D(11,9,10,14)          58.6731         estimate D2E/DX2                !
 ! D38   D(11,9,10,15)        -179.8028         estimate D2E/DX2                !
 ! D39   D(12,9,10,13)          60.2516         estimate D2E/DX2                !
 ! D40   D(12,9,10,14)         179.3531         estimate D2E/DX2                !
 ! D41   D(12,9,10,15)         -59.1229         estimate D2E/DX2                !
 --------------------------------------------------------------------------------
 Trust Radius=3.00D-01 FncErr=1.00D-07 GrdErr=1.00D-06
 Number of optimizations in scan=  19
 Number of steps in this run=    103 maximum allowed number of steps=    114.
 GradGradGradGradGradGradGradGradGradGradGradGradGradGradGradGradGradGrad

                          Input orientation:                          
 ---------------------------------------------------------------------
 Center     Atomic      Atomic             Coordinates (Angstroms)
 Number     Number       Type             X           Y           Z
 ---------------------------------------------------------------------
      1          6           0       -0.158405    1.306322    0.087444
      2          6           0        1.181936    1.215525   -0.132721
      3          6           0        0.410657   -0.820919    0.235663
      4          7           0       -0.620867    0.024527    0.318397
      5          1           0       -0.811205    2.161867    0.103905
      6          1           0        1.915285    1.975595   -0.340978
      7          1           0        0.359227   -1.888417    0.369067
      8          7           0        1.518451   -0.122137   -0.036416
      9          6           0       -2.032536   -0.353500    0.561064
     10          6           0       -2.873231   -0.255465   -0.705697
     11          1           0       -2.405174    0.303768    1.347675
     12          1           0       -2.020172   -1.368988    0.957390
     13          1           0       -3.899598   -0.547898   -0.477583
     14          1           0       -2.894064    0.764123   -1.095179
     15          1           0       -2.493350   -0.919691   -1.484356
     16          6           0        2.869710   -0.677097   -0.196343
     17          1           0        3.242842   -0.437950   -1.191304
     18          1           0        3.526869   -0.254506    0.562652
     19          1           0        2.823867   -1.757279   -0.076089
 ---------------------------------------------------------------------
                    Distance matrix (angstroms):
                    1          2          3          4          5
     1  C    0.000000
     2  C    1.361334   0.000000
     3  C    2.207024   2.208548   0.000000
     4  N    1.382103   2.207279   1.336288   0.000000
     5  H    1.076279   2.219046   3.226038   2.156492   0.000000
     6  H    2.220735   1.076512   3.227524   3.267034   2.768821
     7  H    3.248632   3.250091   1.077029   2.150001   4.224337
     8  N    2.206283   1.382699   1.337734   2.173497   3.265527
     9  C    2.547880   3.643625   2.508697   1.481418   2.833322
    10  C    3.230871   4.351607   3.462631   2.490041   3.278856
    11  H    2.764285   3.986255   3.229613   2.078735   2.745949
    12  H    3.373465   4.256940   2.594262   2.075632   3.828443
    13  H    4.213539   5.389858   4.377391   3.422182   4.149593
    14  H    3.029259   4.212347   3.899318   2.777161   2.780250
    15  H    3.588545   4.460245   3.376607   2.765439   3.853334
    16  C    3.630974   2.536661   2.500851   3.597411   4.658220
    17  H    4.030653   2.846386   3.194397   4.173887   4.987175
    18  H    4.030292   2.853638   3.184105   4.164281   4.986803
    19  H    4.278591   3.396574   2.607210   3.898288   5.348445
                    6          7          8          9         10
     6  H    0.000000
     7  H    4.225644   0.000000
     8  N    2.156552   2.151270   0.000000
     9  C    4.671580   2.848397   3.608327   0.000000
    10  C    5.295331   3.777623   4.444388   1.523503   0.000000
    11  H    4.930814   3.661320   4.182337   1.090696   2.179026
    12  H    5.325394   2.505488   3.881255   1.090158   2.175662
    13  H    6.340311   4.544381   5.452629   2.145343   1.091322
    14  H    5.016605   4.445659   4.623498   2.175880   1.091645
    15  H    5.396856   3.537061   4.339029   2.171788   1.091703
    16  C    2.822875   2.844206   1.469510   4.970956   5.780881
    17  H    2.882822   3.585226   2.099292   5.559455   6.138034
    18  H    2.896050   3.569467   2.100035   5.560287   6.524568
    19  H    3.850979   2.507950   2.092696   5.095215   5.925266
                   11         12         13         14         15
    11  H    0.000000
    12  H    1.760302   0.000000
    13  H    2.508027   2.503114   0.000000
    14  H    2.533472   3.086567   1.764631   0.000000
    15  H    3.086264   2.527427   1.768999   1.774052   0.000000
    16  C    5.583054   5.071564   6.776380   6.008837   5.520891
    17  H    6.236718   5.760471   7.178853   6.254265   5.763840
    18  H    6.009748   5.671644   7.504704   6.709277   6.393414
    19  H    5.798094   4.968255   6.843156   6.331726   5.563952
                   16         17         18         19
    16  C    0.000000
    17  H    1.089204   0.000000
    18  H    1.089273   1.786249   0.000000
    19  H    1.087821   1.777603   1.777788   0.000000
 Stoichiometry    C6H11N2(1+)
 Framework group  C1[X(C6H11N2)]
 Deg. of freedom    51
 Full point group                 C1      NOp   1
 Largest Abelian subgroup         C1      NOp   1
 Largest concise Abelian subgroup C1      NOp   1
                         Standard orientation:                         
 ---------------------------------------------------------------------
 Center     Atomic      Atomic             Coordinates (Angstroms)
 Number     Number       Type             X           Y           Z
 ---------------------------------------------------------------------
      1          6           0        0.163277    1.303014   -0.150165
      2          6           0       -1.176772    1.227237    0.077332
      3          6           0       -0.414091   -0.826516   -0.202125
      4          7           0        0.620331    0.010454   -0.325086
      5          1           0        0.819201    2.154473   -0.206376
      6          1           0       -1.906711    1.998622    0.253497
      7          1           0       -0.366997   -1.899080   -0.288049
      8          7           0       -1.518520   -0.112085    0.041505
      9          6           0        2.029904   -0.383399   -0.554397
     10          6           0        2.874487   -0.232352    0.704541
     11          1           0        2.402785    0.236804   -1.370440
     12          1           0        2.012664   -1.415453   -0.905128
     13          1           0        3.899120   -0.538572    0.486971
     14          1           0        2.900191    0.803460    1.048231
     15          1           0        2.494315   -0.859833    1.512968
     16          6           0       -2.871379   -0.654200    0.229500
     17          1           0       -3.240844   -0.369615    1.213812
     18          1           0       -3.529078   -0.263263   -0.545817
     19          1           0       -2.829882   -1.738829    0.157291
 ---------------------------------------------------------------------
 Rotational constants (GHZ):      5.3390164      1.2609972      1.1144000
 Standard basis: 6-311+G(d,p) (5D, 7F)
 There are   250 symmetry adapted cartesian basis functions of A   symmetry.
 There are   242 symmetry adapted basis functions of A   symmetry.
   242 basis functions,   376 primitive gaussians,   250 cartesian basis functions
    30 alpha electrons       30 beta electrons
       nuclear repulsion energy       380.5336769385 Hartrees.
 NAtoms=   19 NActive=   19 NUniq=   19 SFac= 1.00D+00 NAtFMM=   60 NAOKFM=F Big=F
 Integral buffers will be    131072 words long.
 Raffenetti 2 integral format.
 Two-electron integral symmetry is turned on.
 Nuclear repulsion after empirical dispersion term =      380.5060380400 Hartrees.
 One-electron integrals computed using PRISM.
 NBasis=   242 RedAO= T EigKep=  2.11D-05  NBF=   242
 NBsUse=   242 1.00D-06 EigRej= -1.00D+00 NBFU=   242
 ExpMin= 4.38D-02 ExpMax= 6.29D+03 ExpMxC= 9.49D+02 IAcc=3 IRadAn=         5 AccDes= 0.00D+00
 Harris functional with IExCor=  402 and IRadAn=       5 diagonalized for initial guess.
 HarFok:  IExCor=  402 AccDes= 0.00D+00 IRadAn=         5 IDoV= 1 UseB2=F ITyADJ=14
 ICtDFT=  3500011 ScaDFX=  1.000000  1.000000  1.000000  1.000000
 FoFCou: FMM=F IPFlag=           0 FMFlag=      100000 FMFlg1=           0
         NFxFlg=           0 DoJE=T BraDBF=F KetDBF=T FulRan=T
         wScrn=  0.000000 ICntrl=     500 IOpCl=  0 I1Cent=   200000004 NGrid=           0
         NMat0=    1 NMatS0=      1 NMatT0=    0 NMatD0=    1 NMtDS0=    0 NMtDT0=    0
 Petite list used in FoFCou.
 Keep R1 ints in memory in canonical form, NReq=440398828.
 Requested convergence on RMS density matrix=1.00D-09 within 128 cycles.
 Requested convergence on MAX density matrix=1.00D-07.
 Requested convergence on             energy=1.00D-07.
 No special actions if energy rises.
 SCF Done:  E(RB3LYP) =  -344.664665050     A.U. after   15 cycles
            NFock= 15  Conv=0.20D-09     -V/T= 2.0046

 **********************************************************************

            Population analysis using the SCF density.

 **********************************************************************

 Orbital symmetries:
       Occupied  (A) (A) (A) (A) (A) (A) (A) (A) (A) (A) (A) (A)
                 (A) (A) (A) (A) (A) (A) (A) (A) (A) (A) (A) (A)
                 (A) (A) (A) (A) (A) (A)
       Virtual   (A) (A) (A) (A) (A) (A) (A) (A) (A) (A) (A) (A)
                 (A) (A) (A) (A) (A) (A) (A) (A) (A) (A) (A) (A)
                 (A) (A) (A) (A) (A) (A) (A) (A) (A) (A) (A) (A)
                 (A) (A) (A) (A) (A) (A) (A) (A) (A) (A) (A) (A)
                 (A) (A) (A) (A) (A) (A) (A) (A) (A) (A) (A) (A)
                 (A) (A) (A) (A) (A) (A) (A) (A) (A) (A) (A) (A)
                 (A) (A) (A) (A) (A) (A) (A) (A) (A) (A) (A) (A)
                 (A) (A) (A) (A) (A) (A) (A) (A) (A) (A) (A) (A)
                 (A) (A) (A) (A) (A) (A) (A) (A) (A) (A) (A) (A)
                 (A) (A) (A) (A) (A) (A) (A) (A) (A) (A) (A) (A)
                 (A) (A) (A) (A) (A) (A) (A) (A) (A) (A) (A) (A)
                 (A) (A) (A) (A) (A) (A) (A) (A) (A) (A) (A) (A)
                 (A) (A) (A) (A) (A) (A) (A) (A) (A) (A) (A) (A)
                 (A) (A) (A) (A) (A) (A) (A) (A) (A) (A) (A) (A)
                 (A) (A) (A) (A) (A) (A) (A) (A) (A) (A) (A) (A)
                 (A) (A) (A) (A) (A) (A) (A) (A) (A) (A) (A) (A)
                 (A) (A) (A) (A) (A) (A) (A) (A) (A) (A) (A) (A)
                 (A) (A) (A) (A) (A) (A) (A) (A)
 The electronic state is 1-A.
 Alpha  occ. eigenvalues --  -14.57801 -14.57380 -10.44147 -10.39271 -10.39201
 Alpha  occ. eigenvalues --  -10.38355 -10.38134 -10.31270  -1.24509  -1.12670
 Alpha  occ. eigenvalues --   -0.97468  -0.94531  -0.89688  -0.82772  -0.80080
 Alpha  occ. eigenvalues --   -0.78154  -0.72299  -0.67177  -0.65276  -0.64709
 Alpha  occ. eigenvalues --   -0.63589  -0.62580  -0.60614  -0.59635  -0.57737
 Alpha  occ. eigenvalues --   -0.55214  -0.53175  -0.51486  -0.47512  -0.43805
 Alpha virt. eigenvalues --   -0.19237  -0.16003  -0.13381  -0.11700  -0.10961
 Alpha virt. eigenvalues --   -0.10088  -0.09488  -0.08665  -0.08527  -0.07574
 Alpha virt. eigenvalues --   -0.06687  -0.06447  -0.05397  -0.04753  -0.04145
 Alpha virt. eigenvalues --   -0.03108  -0.02939  -0.01856  -0.01791  -0.01250
 Alpha virt. eigenvalues --   -0.00500   0.00658   0.01140   0.02325   0.02822
 Alpha virt. eigenvalues --    0.03660   0.03985   0.04206   0.04947   0.05261
 Alpha virt. eigenvalues --    0.05691   0.06317   0.07209   0.08021   0.08097
 Alpha virt. eigenvalues --    0.08562   0.09277   0.09826   0.10185   0.10532
 Alpha virt. eigenvalues --    0.11294   0.12227   0.13616   0.14771   0.15243
 Alpha virt. eigenvalues --    0.15446   0.16469   0.17600   0.21936   0.22832
 Alpha virt. eigenvalues --    0.24251   0.26037   0.27030   0.27755   0.28472
 Alpha virt. eigenvalues --    0.29740   0.32612   0.35740   0.36467   0.37605
 Alpha virt. eigenvalues --    0.39138   0.39984   0.42039   0.42607   0.43360
 Alpha virt. eigenvalues --    0.44045   0.45587   0.46598   0.48388   0.48575
 Alpha virt. eigenvalues --    0.50945   0.51162   0.52209   0.52762   0.54019
 Alpha virt. eigenvalues --    0.54316   0.57421   0.58122   0.59175   0.59935
 Alpha virt. eigenvalues --    0.61812   0.64831   0.65149   0.67966   0.68514
 Alpha virt. eigenvalues --    0.72025   0.76587   0.78181   0.79273   0.81009
 Alpha virt. eigenvalues --    0.81487   0.84921   0.88495   0.89909   0.90076
 Alpha virt. eigenvalues --    0.90968   0.96023   0.99610   1.05648   1.09581
 Alpha virt. eigenvalues --    1.11470   1.13369   1.15867   1.23159   1.24331
 Alpha virt. eigenvalues --    1.27668   1.27906   1.30566   1.32480   1.35632
 Alpha virt. eigenvalues --    1.37139   1.37600   1.38678   1.40357   1.42864
 Alpha virt. eigenvalues --    1.43099   1.43931   1.45612   1.46812   1.47029
 Alpha virt. eigenvalues --    1.47961   1.49964   1.52392   1.54501   1.56130
 Alpha virt. eigenvalues --    1.59213   1.61139   1.61254   1.63219   1.64193
 Alpha virt. eigenvalues --    1.65789   1.69382   1.70153   1.76025   1.80349
 Alpha virt. eigenvalues --    1.84021   1.86056   1.87345   1.93068   1.94003
 Alpha virt. eigenvalues --    1.94661   1.97263   2.00525   2.03574   2.04750
 Alpha virt. eigenvalues --    2.09129   2.12425   2.14632   2.18491   2.22913
 Alpha virt. eigenvalues --    2.25459   2.28162   2.30907   2.32628   2.34171
 Alpha virt. eigenvalues --    2.34791   2.35003   2.37069   2.37784   2.39666
 Alpha virt. eigenvalues --    2.40526   2.42171   2.43685   2.46304   2.46850
 Alpha virt. eigenvalues --    2.47803   2.49002   2.50184   2.55275   2.58179
 Alpha virt. eigenvalues --    2.59134   2.62469   2.63602   2.64132   2.68294
 Alpha virt. eigenvalues --    2.69285   2.74392   2.77945   2.80545   2.81098
 Alpha virt. eigenvalues --    2.82730   2.94449   3.04671   3.12715   3.21883
 Alpha virt. eigenvalues --    3.39388   3.41383   3.47386   3.50739   3.57162
 Alpha virt. eigenvalues --    3.58648   3.62629   3.65189   3.66996   3.69202
 Alpha virt. eigenvalues --    3.73550   3.75116   3.75613   3.94094   4.07210
 Alpha virt. eigenvalues --    4.55248   4.74903   4.78700   5.09017  23.57582
 Alpha virt. eigenvalues --   23.69032  23.72503  23.75043  23.82372  24.00725
 Alpha virt. eigenvalues --   35.27689  35.43542
          Condensed to atoms (all electrons):
               1          2          3          4          5          6
     1  C    5.607782  -0.036801  -0.075165   0.032780   0.472999  -0.071098
     2  C   -0.036801   5.612989  -0.087723   0.239194  -0.071841   0.474682
     3  C   -0.075165  -0.087723   5.043400   0.430794   0.010385   0.010311
     4  N    0.032780   0.239194   0.430794   6.683397  -0.061168   0.026326
     5  H    0.472999  -0.071841   0.010385  -0.061168   0.448666  -0.002191
     6  H   -0.071098   0.474682   0.010311   0.026326  -0.002191   0.448403
     7  H    0.004668   0.009125   0.429387  -0.033054  -0.000051  -0.000038
     8  N    0.237001   0.042162   0.449863  -0.286763   0.027413  -0.065638
     9  C   -0.076095   0.004897  -0.084629   0.153219  -0.018500   0.001064
    10  C   -0.020522   0.026803  -0.005321  -0.077756   0.005888  -0.000133
    11  H   -0.014805   0.005581  -0.006283  -0.025078  -0.001163   0.000016
    12  H    0.018215  -0.012807   0.018505  -0.061430   0.000203   0.000015
    13  H    0.000082   0.001440   0.002629   0.017582  -0.000117  -0.000001
    14  H    0.019579  -0.014667  -0.003356  -0.025938   0.000652   0.000007
    15  H   -0.008329  -0.000260   0.000278   0.006913  -0.000066   0.000004
    16  C    0.036989  -0.128224  -0.089096  -0.014354   0.000957  -0.009352
    17  H    0.010983  -0.015156  -0.009007  -0.004930   0.000013  -0.000540
    18  H    0.003495  -0.010418  -0.013961  -0.004355   0.000007  -0.000521
    19  H   -0.006561   0.011352   0.023942   0.011780   0.000013   0.000098
               7          8          9         10         11         12
     1  C    0.004668   0.237001  -0.076095  -0.020522  -0.014805   0.018215
     2  C    0.009125   0.042162   0.004897   0.026803   0.005581  -0.012807
     3  C    0.429387   0.449863  -0.084629  -0.005321  -0.006283   0.018505
     4  N   -0.033054  -0.286763   0.153219  -0.077756  -0.025078  -0.061430
     5  H   -0.000051   0.027413  -0.018500   0.005888  -0.001163   0.000203
     6  H   -0.000038  -0.065638   0.001064  -0.000133   0.000016   0.000015
     7  H    0.442757  -0.034061  -0.008688   0.002967   0.000162   0.001381
     8  N   -0.034061   6.567639  -0.022853  -0.004609  -0.006374   0.013487
     9  C   -0.008688  -0.022853   5.346194   0.093121   0.466966   0.403194
    10  C    0.002967  -0.004609   0.093121   5.229655  -0.061190  -0.032004
    11  H    0.000162  -0.006374   0.466966  -0.061190   0.474905  -0.030345
    12  H    0.001381   0.013487   0.403194  -0.032004  -0.030345   0.510842
    13  H   -0.000036  -0.000040  -0.070286   0.434087  -0.003589  -0.003129
    14  H    0.000003   0.004027  -0.001122   0.394366  -0.008716   0.006558
    15  H    0.000101  -0.002941  -0.009260   0.395108   0.005810  -0.008254
    16  C   -0.004039   0.237294  -0.008332   0.000997  -0.000995   0.002797
    17  H    0.000070  -0.028135  -0.000239  -0.000056  -0.000001   0.000000
    18  H    0.000046  -0.025733  -0.001068  -0.000052  -0.000003   0.000004
    19  H    0.001112  -0.047017   0.003314   0.000140   0.000000   0.000022
              13         14         15         16         17         18
     1  C    0.000082   0.019579  -0.008329   0.036989   0.010983   0.003495
     2  C    0.001440  -0.014667  -0.000260  -0.128224  -0.015156  -0.010418
     3  C    0.002629  -0.003356   0.000278  -0.089096  -0.009007  -0.013961
     4  N    0.017582  -0.025938   0.006913  -0.014354  -0.004930  -0.004355
     5  H   -0.000117   0.000652  -0.000066   0.000957   0.000013   0.000007
     6  H   -0.000001   0.000007   0.000004  -0.009352  -0.000540  -0.000521
     7  H   -0.000036   0.000003   0.000101  -0.004039   0.000070   0.000046
     8  N   -0.000040   0.004027  -0.002941   0.237294  -0.028135  -0.025733
     9  C   -0.070286  -0.001122  -0.009260  -0.008332  -0.000239  -0.001068
    10  C    0.434087   0.394366   0.395108   0.000997  -0.000056  -0.000052
    11  H   -0.003589  -0.008716   0.005810  -0.000995  -0.000001  -0.000003
    12  H   -0.003129   0.006558  -0.008254   0.002797   0.000000   0.000004
    13  H    0.473313  -0.018886  -0.021075   0.000076   0.000000   0.000000
    14  H   -0.018886   0.517963  -0.028761   0.000241   0.000001   0.000000
    15  H   -0.021075  -0.028761   0.510639  -0.000720   0.000000   0.000000
    16  C    0.000076   0.000241  -0.000720   4.963300   0.416137   0.423482
    17  H    0.000000   0.000001   0.000000   0.416137   0.469198  -0.028772
    18  H    0.000000   0.000000   0.000000   0.423482  -0.028772   0.464726
    19  H    0.000000   0.000000   0.000000   0.375363  -0.018562  -0.018408
              19
     1  C   -0.006561
     2  C    0.011352
     3  C    0.023942
     4  N    0.011780
     5  H    0.000013
     6  H    0.000098
     7  H    0.001112
     8  N   -0.047017
     9  C    0.003314
    10  C    0.000140
    11  H    0.000000
    12  H    0.000022
    13  H    0.000000
    14  H    0.000000
    15  H    0.000000
    16  C    0.375363
    17  H   -0.018562
    18  H   -0.018408
    19  H    0.486003
 Mulliken charges:
               1
     1  C   -0.135197
     2  C   -0.050327
     3  C   -0.044951
     4  N   -0.007160
     5  H    0.187899
     6  H    0.188585
     7  H    0.188186
     8  N   -0.054721
     9  C   -0.170895
    10  C   -0.381489
    11  H    0.205100
    12  H    0.172745
    13  H    0.187951
    14  H    0.158047
    15  H    0.160814
    16  C   -0.202520
    17  H    0.208995
    18  H    0.211531
    19  H    0.177407
 Sum of Mulliken charges =   1.00000
 Mulliken charges with hydrogens summed into heavy atoms:
               1
     1  C    0.052703
     2  C    0.138258
     3  C    0.143235
     4  N   -0.007160
     8  N   -0.054721
     9  C    0.206950
    10  C    0.125323
    16  C    0.395413
 Electronic spatial extent (au):  <R**2>=           1107.4415
 Charge=              1.0000 electrons
 Dipole moment (field-independent basis, Debye):
    X=             -1.4885    Y=             -0.6535    Z=             -0.3040  Tot=              1.6538
 Quadrupole moment (field-independent basis, Debye-Ang):
   XX=            -21.5695   YY=            -36.4645   ZZ=            -47.3539
   XY=              0.8533   XZ=             -2.4209   YZ=              0.5939
 Traceless Quadrupole moment (field-independent basis, Debye-Ang):
   XX=             13.5598   YY=             -1.3352   ZZ=            -12.2246
   XY=              0.8533   XZ=             -2.4209   YZ=              0.5939
 Octapole moment (field-independent basis, Debye-Ang**2):
  XXX=            -19.3338  YYY=              1.4319  ZZZ=              0.1898  XYY=             -5.5856
  XXY=             -5.8417  XXZ=              2.7465  XZZ=              0.6445  YZZ=             -2.1481
  YYZ=             -1.1272  XYZ=             -0.5201
 Hexadecapole moment (field-independent basis, Debye-Ang**3):
 XXXX=           -864.3572 YYYY=           -207.4792 ZZZZ=           -113.8072 XXXY=              2.8204
 XXXZ=            -11.4281 YYYX=              5.3182 YYYZ=              4.9298 ZZZX=             -7.2288
 ZZZY=             -1.5003 XXYY=           -196.8495 XXZZ=           -187.0972 YYZZ=            -64.3977
 XXYZ=             -0.0734 YYXZ=             -4.7629 ZZXY=              0.5204
 N-N= 3.805060380400D+02 E-N=-1.549557673187D+03  KE= 3.431009833024D+02
 Calling FoFJK, ICntrl=      2127 FMM=F ISym2X=0 I1Cent= 0 IOpClX= 0 NMat=1 NMatS=1 NMatT=0.
 ***** Axes restored to original set *****
 -------------------------------------------------------------------
 Center     Atomic                   Forces (Hartrees/Bohr)
 Number     Number              X              Y              Z
 -------------------------------------------------------------------
      1        6           0.000009291    0.000016633   -0.000021774
      2        6          -0.000006266    0.000015678    0.000019516
      3        6           0.000004468    0.000010130   -0.000000158
      4        7          -0.000012958   -0.000020991    0.000023962
      5        1           0.000005037    0.000003315   -0.000000085
      6        1          -0.000004333    0.000002708   -0.000002744
      7        1           0.000002081    0.000000634    0.000003533
      8        7          -0.000002357   -0.000030396   -0.000016310
      9        6          -0.000021442   -0.000004105   -0.000022596
     10        6           0.000031594    0.000010768   -0.000002079
     11        1           0.000000168    0.000005259   -0.000003593
     12        1           0.000000585   -0.000004012   -0.000007308
     13        1           0.000000331   -0.000005916    0.000021629
     14        1          -0.000001149   -0.000000887    0.000002227
     15        1          -0.000000405   -0.000000080    0.000003212
     16        6           0.000005728   -0.000000088    0.000002246
     17        1          -0.000001077    0.000002543    0.000001066
     18        1          -0.000003675   -0.000000418    0.000003945
     19        1          -0.000005621   -0.000000775   -0.000004685
 -------------------------------------------------------------------
 Cartesian Forces:  Max     0.000031594 RMS     0.000011048

 GradGradGradGradGradGradGradGradGradGradGradGradGradGradGradGradGradGrad
 Berny optimization.
 FormGI is forming the generalized inverse of G from B-inverse, IUseBI=4.
 Internal  Forces:  Max     0.000037658 RMS     0.000007289
 Search for a local minimum.
 Step number   1 out of a maximum of  103 on scan point     1 out of    19
 All quantities printed in internal units (Hartrees-Bohrs-Radians)
 Mixed Optimization -- En-DIIS/RFO-DIIS
 Second derivative matrix not updated -- first step.
 ITU=  0
     Eigenvalues ---    0.00455   0.00772   0.01189   0.01585   0.02140
     Eigenvalues ---    0.02190   0.02385   0.02407   0.02525   0.03306
     Eigenvalues ---    0.05243   0.05503   0.05789   0.07542   0.07631
     Eigenvalues ---    0.09474   0.11496   0.15999   0.16000   0.16000
     Eigenvalues ---    0.16000   0.16000   0.16000   0.16000   0.16000
     Eigenvalues ---    0.16000   0.21947   0.22823   0.23547   0.24967
     Eigenvalues ---    0.24999   0.30032   0.34408   0.34617   0.34623
     Eigenvalues ---    0.34660   0.34732   0.34794   0.34897   0.34905
     Eigenvalues ---    0.35066   0.35799   0.36356   0.36419   0.36448
     Eigenvalues ---    0.43557   0.46213   0.49591   0.55659   0.56479
     Eigenvalues --- 1000.000001000.000001000.000001000.000001000.00000
     Eigenvalues --- 1000.000001000.000001000.000001000.000001000.00000
     Eigenvalues --- 1000.000001000.000001000.000001000.000001000.00000
     Eigenvalues --- 1000.000001000.000001000.000001000.000001000.00000
     Eigenvalues --- 1000.000001000.000001000.000001000.000001000.00000
     Eigenvalues --- 1000.000001000.000001000.000001000.000001000.00000
     Eigenvalues --- 1000.000001000.000001000.000001000.000001000.00000
     Eigenvalues --- 1000.000001000.000001000.000001000.000001000.00000
     Eigenvalues --- 1000.000001000.000001000.00000
 RFO step:  Lambda=-4.14876670D-08 EMin= 4.55045778D-03
 Linear search not attempted -- first point.
 Iteration  1 RMS(Cart)=  0.00021447 RMS(Int)=  0.00000004
 Iteration  2 RMS(Cart)=  0.00000005 RMS(Int)=  0.00000000
 Iteration  1 RMS(Cart)=  0.00000000 RMS(Int)=  0.00000000
 Variable       Old X    -DE/DX   Delta X   Delta X   Delta X     New X
                                 (Linear)    (Quad)   (Total)
    R1        2.57255  -0.00001   0.00000  -0.00002  -0.00002   2.57253
    R2        2.61180   0.00002   0.00000   0.00005   0.00005   2.61184
    R3        2.03387   0.00000   0.00000   0.00000   0.00000   2.03387
    R4        2.03431   0.00000   0.00000   0.00000   0.00000   2.03431
    R5        2.61292   0.00002   0.00000   0.00004   0.00004   2.61296
    R6        2.52522   0.00000   0.00000  -0.00001  -0.00001   2.52521
    R7        2.03529   0.00000   0.00000   0.00000   0.00000   2.03529
    R8        2.52795  -0.00001   0.00000  -0.00002  -0.00002   2.52793
    R9        2.79948  -0.00001   0.00000  -0.00003  -0.00003   2.79944
   R10        2.77697  -0.00001   0.00000  -0.00001  -0.00001   2.77696
   R11        2.87900  -0.00004   0.00000  -0.00013  -0.00013   2.87888
   R12        2.06112   0.00000   0.00000   0.00000   0.00000   2.06112
   R13        2.06010   0.00000   0.00000   0.00000   0.00000   2.06010
   R14        2.06230   0.00001   0.00000   0.00002   0.00002   2.06232
   R15        2.06291   0.00000   0.00000  -0.00001  -0.00001   2.06291
   R16        2.06302   0.00000   0.00000  -0.00001  -0.00001   2.06301
   R17        2.05830   0.00000   0.00000   0.00000   0.00000   2.05829
   R18        2.05843   0.00000   0.00000   0.00000   0.00000   2.05843
   R19        2.05568   0.00000   0.00000   0.00000   0.00000   2.05569
    A1        1.86985   0.00000   0.00000  -0.00001  -0.00001   1.86984
    A2        2.28190   0.00000   0.00000  -0.00003  -0.00003   2.28187
    A3        2.13142   0.00001   0.00000   0.00004   0.00004   2.13146
    A4        2.28487  -0.00001   0.00000  -0.00003  -0.00003   2.28484
    A5        1.86804   0.00000   0.00000   0.00000   0.00000   1.86804
    A6        2.13026   0.00000   0.00000   0.00003   0.00003   2.13029
    A7        2.19266   0.00000   0.00000   0.00000   0.00000   2.19267
    A8        1.89795   0.00000   0.00000   0.00002   0.00002   1.89797
    A9        2.19257   0.00000   0.00000  -0.00002  -0.00002   2.19255
   A10        1.89455   0.00000   0.00000  -0.00001  -0.00001   1.89454
   A11        2.19307   0.00001   0.00000   0.00002   0.00002   2.19310
   A12        2.19479   0.00000   0.00000  -0.00002  -0.00002   2.19477
   A13        1.89439   0.00000   0.00000  -0.00001  -0.00001   1.89438
   A14        2.19144   0.00000   0.00000   0.00001   0.00001   2.19145
   A15        2.19733   0.00000   0.00000   0.00000   0.00000   2.19732
   A16        1.95327   0.00001   0.00000   0.00002   0.00002   1.95329
   A17        1.86495   0.00000   0.00000   0.00000   0.00000   1.86495
   A18        1.86131   0.00000   0.00000  -0.00002  -0.00002   1.86129
   A19        1.95234   0.00000   0.00000  -0.00001  -0.00001   1.95234
   A20        1.94817   0.00000   0.00000  -0.00005  -0.00005   1.94812
   A21        1.87866   0.00001   0.00000   0.00007   0.00007   1.87872
   A22        1.90491  -0.00003   0.00000  -0.00024  -0.00024   1.90467
   A23        1.94689   0.00001   0.00000   0.00005   0.00005   1.94695
   A24        1.94109   0.00000   0.00000   0.00003   0.00003   1.94112
   A25        1.88273   0.00001   0.00000   0.00005   0.00005   1.88278
   A26        1.88947   0.00001   0.00000   0.00004   0.00004   1.88951
   A27        1.89698   0.00000   0.00000   0.00007   0.00007   1.89705
   A28        1.90869   0.00000   0.00000  -0.00001  -0.00001   1.90868
   A29        1.90965   0.00000   0.00000  -0.00002  -0.00002   1.90963
   A30        1.90098  -0.00001   0.00000  -0.00004  -0.00004   1.90094
   A31        1.92266   0.00000   0.00000   0.00003   0.00003   1.92269
   A32        1.91074   0.00000   0.00000   0.00001   0.00001   1.91075
   A33        1.91095   0.00001   0.00000   0.00003   0.00003   1.91098
    D1       -3.13223   0.00000   0.00000   0.00003   0.00003  -3.13220
    D2        0.00268   0.00001   0.00000   0.00031   0.00031   0.00298
    D3        0.00337   0.00000   0.00000  -0.00015  -0.00015   0.00321
    D4        3.13828   0.00000   0.00000   0.00012   0.00012   3.13840
    D5       -0.00374   0.00000   0.00000  -0.00022  -0.00022  -0.00395
    D6       -3.10489   0.00000   0.00000  -0.00009  -0.00009  -3.10499
    D7       -3.13997   0.00000   0.00000  -0.00005  -0.00005  -3.14002
    D8        0.04206   0.00000   0.00000   0.00007   0.00007   0.04213
    D9       -0.00070  -0.00001   0.00000  -0.00029  -0.00029  -0.00099
   D10       -3.13454   0.00000   0.00000  -0.00008  -0.00008  -3.13462
   D11        3.13494   0.00000   0.00000  -0.00004  -0.00004   3.13489
   D12        0.00109   0.00000   0.00000   0.00017   0.00017   0.00126
   D13       -3.14132   0.00000   0.00000   0.00001   0.00001  -3.14131
   D14       -0.04021   0.00000   0.00000  -0.00012  -0.00012  -0.04033
   D15        0.00334   0.00000   0.00000   0.00004   0.00004   0.00337
   D16        3.10444   0.00000   0.00000  -0.00008  -0.00008   3.10436
   D17       -0.00165   0.00000   0.00000   0.00016   0.00016  -0.00149
   D18        3.13217   0.00000   0.00000  -0.00005  -0.00005   3.13211
   D19       -3.14018   0.00000   0.00000   0.00019   0.00019  -3.13999
   D20       -0.00636   0.00000   0.00000  -0.00002  -0.00002  -0.00639
   D21        1.25863   0.00000   0.00000   0.00000   0.00000   1.25863
   D22       -0.88407   0.00000   0.00000   0.00000   0.00000  -0.88407
   D23       -2.88946   0.00000   0.00000  -0.00007  -0.00007  -2.88952
   D24       -1.83572   0.00000   0.00000   0.00014   0.00014  -1.83557
   D25        2.30477   0.00000   0.00000   0.00014   0.00014   2.30491
   D26        0.29938   0.00000   0.00000   0.00007   0.00007   0.29945
   D27       -1.04464   0.00000   0.00000   0.00032   0.00032  -1.04432
   D28        1.06270   0.00000   0.00000   0.00033   0.00033   1.06303
   D29       -3.13216   0.00000   0.00000   0.00034   0.00034  -3.13182
   D30        2.10602   0.00000   0.00000   0.00056   0.00056   2.10658
   D31       -2.06983   0.00001   0.00000   0.00058   0.00058  -2.06925
   D32        0.01850   0.00001   0.00000   0.00058   0.00058   0.01909
   D33        3.13629   0.00000   0.00000  -0.00010  -0.00010   3.13619
   D34       -1.06819   0.00000   0.00000  -0.00016  -0.00016  -1.06834
   D35        1.05281   0.00000   0.00000  -0.00001  -0.00001   1.05279
   D36       -1.05467   0.00000   0.00000  -0.00009  -0.00009  -1.05476
   D37        1.02404   0.00000   0.00000  -0.00015  -0.00015   1.02389
   D38       -3.13815   0.00000   0.00000  -0.00001  -0.00001  -3.13816
   D39        1.05159   0.00000   0.00000  -0.00005  -0.00005   1.05154
   D40        3.13030   0.00000   0.00000  -0.00011  -0.00011   3.13019
   D41       -1.03189   0.00000   0.00000   0.00004   0.00004  -1.03185
         Item               Value     Threshold  Converged?
 Maximum Force            0.000038     0.000450     YES
 RMS     Force            0.000007     0.000300     YES
 Maximum Displacement     0.000999     0.001800     YES
 RMS     Displacement     0.000214     0.001200     YES
 Predicted change in Energy=-2.074388D-08
 Optimization completed.
    -- Stationary point found.
                           ----------------------------
                           !   Optimized Parameters   !
                           ! (Angstroms and Degrees)  !
 --------------------------                            --------------------------
 ! Name  Definition              Value          Derivative Info.                !
 --------------------------------------------------------------------------------
 ! R1    R(1,2)                  1.3613         -DE/DX =    0.0                 !
 ! R2    R(1,4)                  1.3821         -DE/DX =    0.0                 !
 ! R3    R(1,5)                  1.0763         -DE/DX =    0.0                 !
 ! R4    R(2,6)                  1.0765         -DE/DX =    0.0                 !
 ! R5    R(2,8)                  1.3827         -DE/DX =    0.0                 !
 ! R6    R(3,4)                  1.3363         -DE/DX =    0.0                 !
 ! R7    R(3,7)                  1.077          -DE/DX =    0.0                 !
 ! R8    R(3,8)                  1.3377         -DE/DX =    0.0                 !
 ! R9    R(4,9)                  1.4814         -DE/DX =    0.0                 !
 ! R10   R(8,16)                 1.4695         -DE/DX =    0.0                 !
 ! R11   R(9,10)                 1.5235         -DE/DX =    0.0                 !
 ! R12   R(9,11)                 1.0907         -DE/DX =    0.0                 !
 ! R13   R(9,12)                 1.0902         -DE/DX =    0.0                 !
 ! R14   R(10,13)                1.0913         -DE/DX =    0.0                 !
 ! R15   R(10,14)                1.0916         -DE/DX =    0.0                 !
 ! R16   R(10,15)                1.0917         -DE/DX =    0.0                 !
 ! R17   R(16,17)                1.0892         -DE/DX =    0.0                 !
 ! R18   R(16,18)                1.0893         -DE/DX =    0.0                 !
 ! R19   R(16,19)                1.0878         -DE/DX =    0.0                 !
 ! A1    A(2,1,4)              107.1345         -DE/DX =    0.0                 !
 ! A2    A(2,1,5)              130.7434         -DE/DX =    0.0                 !
 ! A3    A(4,1,5)              122.1212         -DE/DX =    0.0                 !
 ! A4    A(1,2,6)              130.9134         -DE/DX =    0.0                 !
 ! A5    A(1,2,8)              107.0306         -DE/DX =    0.0                 !
 ! A6    A(6,2,8)              122.0548         -DE/DX =    0.0                 !
 ! A7    A(4,3,7)              125.6303         -DE/DX =    0.0                 !
 ! A8    A(4,3,8)              108.7446         -DE/DX =    0.0                 !
 ! A9    A(7,3,8)              125.6248         -DE/DX =    0.0                 !
 ! A10   A(1,4,3)              108.5495         -DE/DX =    0.0                 !
 ! A11   A(1,4,9)              125.6537         -DE/DX =    0.0                 !
 ! A12   A(3,4,9)              125.7523         -DE/DX =    0.0                 !
 ! A13   A(2,8,3)              108.5403         -DE/DX =    0.0                 !
 ! A14   A(2,8,16)             125.5604         -DE/DX =    0.0                 !
 ! A15   A(3,8,16)             125.8977         -DE/DX =    0.0                 !
 ! A16   A(4,9,10)             111.9139         -DE/DX =    0.0                 !
 ! A17   A(4,9,11)             106.8537         -DE/DX =    0.0                 !
 ! A18   A(4,9,12)             106.6452         -DE/DX =    0.0                 !
 ! A19   A(10,9,11)            111.8611         -DE/DX =    0.0                 !
 ! A20   A(10,9,12)            111.6221         -DE/DX =    0.0                 !
 ! A21   A(11,9,12)            107.6391         -DE/DX =    0.0                 !
 ! A22   A(9,10,13)            109.1431         -DE/DX =    0.0                 !
 ! A23   A(9,10,14)            111.5486         -DE/DX =    0.0                 !
 ! A24   A(9,10,15)            111.216          -DE/DX =    0.0                 !
 ! A25   A(13,10,14)           107.8727         -DE/DX =    0.0                 !
 ! A26   A(13,10,15)           108.2589         -DE/DX =    0.0                 !
 ! A27   A(14,10,15)           108.6891         -DE/DX =    0.0                 !
 ! A28   A(8,16,17)            109.36           -DE/DX =    0.0                 !
 ! A29   A(8,16,18)            109.4151         -DE/DX =    0.0                 !
 ! A30   A(8,16,19)            108.9181         -DE/DX =    0.0                 !
 ! A31   A(17,16,18)           110.1602         -DE/DX =    0.0                 !
 ! A32   A(17,16,19)           109.4776         -DE/DX =    0.0                 !
 ! A33   A(18,16,19)           109.4892         -DE/DX =    0.0                 !
 ! D1    D(4,1,2,6)           -179.4638         -DE/DX =    0.0                 !
 ! D2    D(4,1,2,8)              0.1533         -DE/DX =    0.0                 !
 ! D3    D(5,1,2,6)              0.1928         -DE/DX =    0.0                 !
 ! D4    D(5,1,2,8)            179.8099         -DE/DX =    0.0                 !
 ! D5    D(2,1,4,3)             -0.2141         -DE/DX =    0.0                 !
 ! D6    D(2,1,4,9)           -177.8972         -DE/DX =    0.0                 !
 ! D7    D(5,1,4,3)           -179.9069         -DE/DX =    0.0                 !
 ! D8    D(5,1,4,9)              2.41           -DE/DX =    0.0                 !
 ! D9    D(1,2,8,3)             -0.04           -DE/DX =    0.0                 !
 ! D10   D(1,2,8,16)          -179.5961         -DE/DX =    0.0                 !
 ! D11   D(6,2,8,3)            179.6186         -DE/DX =    0.0                 !
 ! D12   D(6,2,8,16)             0.0625         -DE/DX =    0.0                 !
 ! D13   D(7,3,4,1)           -179.9843         -DE/DX =    0.0                 !
 ! D14   D(7,3,4,9)             -2.3041         -DE/DX =    0.0                 !
 ! D15   D(8,3,4,1)              0.1911         -DE/DX =    0.0                 !
 ! D16   D(8,3,4,9)            177.8714         -DE/DX =    0.0                 !
 ! D17   D(4,3,8,2)             -0.0944         -DE/DX =    0.0                 !
 ! D18   D(4,3,8,16)           179.4599         -DE/DX =    0.0                 !
 ! D19   D(7,3,8,2)           -179.9189         -DE/DX =    0.0                 !
 ! D20   D(7,3,8,16)            -0.3647         -DE/DX =    0.0                 !
 ! D21   D(1,4,9,10)            72.1144         -DE/DX =    0.0                 !
 ! D22   D(1,4,9,11)           -50.6535         -DE/DX =    0.0                 !
 ! D23   D(1,4,9,12)          -165.5537         -DE/DX =    0.0                 !
 ! D24   D(3,4,9,10)          -105.1787         -DE/DX =    0.0                 !
 ! D25   D(3,4,9,11)           132.0534         -DE/DX =    0.0                 !
 ! D26   D(3,4,9,12)            17.1532         -DE/DX =    0.0                 !
 ! D27   D(2,8,16,17)          -59.8536         -DE/DX =    0.0                 !
 ! D28   D(2,8,16,18)           60.8881         -DE/DX =    0.0                 !
 ! D29   D(2,8,16,19)         -179.4593         -DE/DX =    0.0                 !
 ! D30   D(3,8,16,17)          120.6659         -DE/DX =    0.0                 !
 ! D31   D(3,8,16,18)         -118.5923         -DE/DX =    0.0                 !
 ! D32   D(3,8,16,19)            1.0602         -DE/DX =    0.0                 !
 ! D33   D(4,9,10,13)          179.6959         -DE/DX =    0.0                 !
 ! D34   D(4,9,10,14)          -61.2027         -DE/DX =    0.0                 !
 ! D35   D(4,9,10,15)           60.3214         -DE/DX =    0.0                 !
 ! D36   D(11,9,10,13)         -60.4283         -DE/DX =    0.0                 !
 ! D37   D(11,9,10,14)          58.6731         -DE/DX =    0.0                 !
 ! D38   D(11,9,10,15)        -179.8028         -DE/DX =    0.0                 !
 ! D39   D(12,9,10,13)          60.2516         -DE/DX =    0.0                 !
 ! D40   D(12,9,10,14)         179.3531         -DE/DX =    0.0                 !
 ! D41   D(12,9,10,15)         -59.1229         -DE/DX =    0.0                 !
 --------------------------------------------------------------------------------
 Iteration  1 RMS(Cart)=  0.02489133 RMS(Int)=  0.01425098
 Iteration  2 RMS(Cart)=  0.00038843 RMS(Int)=  0.01424848
 Iteration  3 RMS(Cart)=  0.00000137 RMS(Int)=  0.01424848
 Iteration  4 RMS(Cart)=  0.00000002 RMS(Int)=  0.01424848
 Iteration  1 RMS(Cart)=  0.01543144 RMS(Int)=  0.00883261
 Iteration  2 RMS(Cart)=  0.00957155 RMS(Int)=  0.00981683
 Iteration  3 RMS(Cart)=  0.00593583 RMS(Int)=  0.01123461
 Iteration  4 RMS(Cart)=  0.00368104 RMS(Int)=  0.01232177
 Iteration  5 RMS(Cart)=  0.00228280 RMS(Int)=  0.01305521
 Iteration  6 RMS(Cart)=  0.00141571 RMS(Int)=  0.01352892
 Iteration  7 RMS(Cart)=  0.00087799 RMS(Int)=  0.01382916
 Iteration  8 RMS(Cart)=  0.00054451 RMS(Int)=  0.01401768
 Iteration  9 RMS(Cart)=  0.00033770 RMS(Int)=  0.01413544
 Iteration 10 RMS(Cart)=  0.00020944 RMS(Int)=  0.01420880
 Iteration 11 RMS(Cart)=  0.00012989 RMS(Int)=  0.01425441
 Iteration 12 RMS(Cart)=  0.00008056 RMS(Int)=  0.01428275
 Iteration 13 RMS(Cart)=  0.00004996 RMS(Int)=  0.01430034
 Iteration 14 RMS(Cart)=  0.00003099 RMS(Int)=  0.01431126
 Iteration 15 RMS(Cart)=  0.00001922 RMS(Int)=  0.01431803
 Iteration 16 RMS(Cart)=  0.00001192 RMS(Int)=  0.01432224
 Iteration 17 RMS(Cart)=  0.00000739 RMS(Int)=  0.01432484
 Iteration 18 RMS(Cart)=  0.00000458 RMS(Int)=  0.01432646
 Iteration 19 RMS(Cart)=  0.00000284 RMS(Int)=  0.01432746
 Iteration 20 RMS(Cart)=  0.00000176 RMS(Int)=  0.01432808
 Iteration 21 RMS(Cart)=  0.00000109 RMS(Int)=  0.01432847
 Iteration 22 RMS(Cart)=  0.00000068 RMS(Int)=  0.01432871
 GradGradGradGradGradGradGradGradGradGradGradGradGradGradGradGradGradGrad

                          Input orientation:                          
 ---------------------------------------------------------------------
 Center     Atomic      Atomic             Coordinates (Angstroms)
 Number     Number       Type             X           Y           Z
 ---------------------------------------------------------------------
      1          6           0       -0.182136    1.265127    0.037776
      2          6           0        1.160726    1.195287   -0.173391
      3          6           0        0.430268   -0.841584    0.264740
      4          7           0       -0.616973   -0.013628    0.334086
      5          1           0       -0.853948    2.105716    0.011870
      6          1           0        1.877596    1.961784   -0.413342
      7          1           0        0.399378   -1.906034    0.426275
      8          7           0        1.524197   -0.130540   -0.029914
      9          6           0       -2.025599   -0.417048    0.552464
     10          6           0       -2.878046   -0.189362   -0.690089
     11          1           0       -2.421890    0.222635    1.342057
     12          1           0       -1.998614   -1.437680    0.934656
     13          1           0       -3.909221   -0.473410   -0.473250
     14          1           0       -2.875828    0.860283   -0.991347
     15          1           0       -2.525508   -0.794765   -1.527769
     16          6           0        2.885895   -0.664035   -0.173691
     17          1           0        3.253111   -0.450845   -1.176755
     18          1           0        3.535523   -0.203640    0.569744
     19          1           0        2.861312   -1.740384   -0.017529
 ---------------------------------------------------------------------
                    Distance matrix (angstroms):
                    1          2          3          4          5
     1  C    0.000000
     2  C    1.361157   0.000000
     3  C    2.205626   2.207798   0.000000
     4  N    1.382786   2.208896   1.336799   0.000000
     5  H    1.076379   2.218584   3.224861   2.156756   0.000000
     6  H    2.220661   1.076567   3.226984   3.268604   2.768186
     7  H    3.247361   3.249222   1.077080   2.150039   4.223351
     8  N    2.205457   1.382214   1.337567   2.175033   3.264684
     9  C    2.548131   3.644058   2.508844   1.481440   2.833609
    10  C    3.148532   4.300687   3.504573   2.488427   3.139602
    11  H    2.793642   4.009710   3.229238   2.080758   2.788159
    12  H    3.377743   4.259309   2.589128   2.073051   3.836332
    13  H    4.144251   5.345917   4.417164   3.420831   4.027644
    14  H    2.911866   4.132196   3.924841   2.760963   2.577895
    15  H    3.490770   4.402609   3.457151   2.778343   3.684751
    16  C    3.630317   2.536392   2.500770   3.598743   4.657508
    17  H    4.027476   2.845095   3.193591   4.177480   4.981643
    18  H    4.032525   2.854629   3.184747   4.163516   4.991173
    19  H    4.277702   3.396241   2.607200   3.899203   5.347570
                    6          7          8          9         10
     6  H    0.000000
     7  H    4.224938   0.000000
     8  N    2.156323   2.150744   0.000000
     9  C    4.671890   2.848424   3.608643   0.000000
    10  C    5.226868   3.864549   4.451857   1.523957   0.000000
    11  H    4.958996   3.650951   4.192689   1.090733   2.123072
    12  H    5.329019   2.495630   3.879330   1.090178   2.229685
    13  H    6.278615   4.628777   5.462246   2.145529   1.091340
    14  H    4.913494   4.515433   4.611540   2.176653   1.092024
    15  H    5.312987   3.688925   4.368624   2.172545   1.092019
    16  C    2.822946   2.843464   1.469527   4.971024   5.806462
    17  H    2.880212   3.582048   2.099281   5.554828   6.155997
    18  H    2.899007   3.571293   2.100088   5.565243   6.536150
    19  H    3.851027   2.507094   2.092756   5.094901   5.983163
                   11         12         13         14         15
    11  H    0.000000
    12  H    1.761188   0.000000
    13  H    2.447850   2.561725   0.000000
    14  H    2.461184   3.124040   1.764954   0.000000
    15  H    3.046595   2.598941   1.769164   1.774727   0.000000
    16  C    5.590730   5.068075   6.804386   6.015776   5.579776
    17  H    6.245288   5.745651   7.196834   6.270352   5.799476
    18  H    6.022371   5.681786   7.522289   6.683888   6.440892
    19  H    5.797771   4.961569   6.903117   6.373897   5.673875
                   16         17         18         19
    16  C    0.000000
    17  H    1.089236   0.000000
    18  H    1.089347   1.786373   0.000000
    19  H    1.087896   1.777701   1.777929   0.000000
 Stoichiometry    C6H11N2(1+)
 Framework group  C1[X(C6H11N2)]
 Deg. of freedom    51
 Full point group                 C1      NOp   1
 Largest Abelian subgroup         C1      NOp   1
 Largest concise Abelian subgroup C1      NOp   1
                         Standard orientation:                         
 ---------------------------------------------------------------------
 Center     Atomic      Atomic             Coordinates (Angstroms)
 Number     Number       Type             X           Y           Z
 ---------------------------------------------------------------------
      1          6           0        0.197018    1.261077   -0.197313
      2          6           0       -1.145674    1.233039    0.024362
      3          6           0       -0.440053   -0.850304   -0.165784
      4          7           0        0.616177   -0.049148   -0.337717
      5          1           0        0.878378    2.090698   -0.275218
      6          1           0       -1.852858    2.031286    0.171628
      7          1           0       -0.421843   -1.926769   -0.197279
      8          7           0       -1.524672   -0.096062    0.043511
      9          6           0        2.019256   -0.492497   -0.509403
     10          6           0        2.879284   -0.126020    0.694130
     11          1           0        2.419518    0.042189   -1.371725
     12          1           0        1.979189   -1.551511   -0.765082
     13          1           0        3.906292   -0.446281    0.510526
     14          1           0        2.890145    0.952334    0.866036
     15          1           0        2.523355   -0.621369    1.599916
     16          6           0       -2.891709   -0.592250    0.254503
     17          1           0       -3.252397   -0.254890    1.225341
     18          1           0       -3.539127   -0.217694   -0.537478
     19          1           0       -2.879918   -1.679802    0.229799
 ---------------------------------------------------------------------
 Rotational constants (GHZ):      5.4454001      1.2590359      1.1134739
 Standard basis: 6-311+G(d,p) (5D, 7F)
 There are   250 symmetry adapted cartesian basis functions of A   symmetry.
 There are   242 symmetry adapted basis functions of A   symmetry.
   242 basis functions,   376 primitive gaussians,   250 cartesian basis functions
    30 alpha electrons       30 beta electrons
       nuclear repulsion energy       380.7250944478 Hartrees.
 NAtoms=   19 NActive=   19 NUniq=   19 SFac= 1.00D+00 NAtFMM=   60 NAOKFM=F Big=F
 Integral buffers will be    131072 words long.
 Raffenetti 2 integral format.
 Two-electron integral symmetry is turned on.
 Nuclear repulsion after empirical dispersion term =      380.6973949914 Hartrees.
 One-electron integrals computed using PRISM.
 NBasis=   242 RedAO= T EigKep=  2.16D-05  NBF=   242
 NBsUse=   242 1.00D-06 EigRej= -1.00D+00 NBFU=   242
 Initial guess from the checkpoint file:  "CJS_emim_6311_plus_d3_scan_bck.chk"
 B after Tr=     0.000000    0.000000    0.000000
         Rot=    0.999328    0.036400   -0.000296    0.004285 Ang=   4.20 deg.
 ExpMin= 4.38D-02 ExpMax= 6.29D+03 ExpMxC= 9.49D+02 IAcc=2 IRadAn=         4 AccDes= 0.00D+00
 Harris functional with IExCor=  402 and IRadAn=       4 diagonalized for initial guess.
 HarFok:  IExCor=  402 AccDes= 0.00D+00 IRadAn=         4 IDoV= 1 UseB2=F ITyADJ=14
 ICtDFT=  3500011 ScaDFX=  1.000000  1.000000  1.000000  1.000000
 FoFCou: FMM=F IPFlag=           0 FMFlag=      100000 FMFlg1=           0
         NFxFlg=           0 DoJE=T BraDBF=F KetDBF=T FulRan=T
         wScrn=  0.000000 ICntrl=     500 IOpCl=  0 I1Cent=   200000004 NGrid=           0
         NMat0=    1 NMatS0=      1 NMatT0=    0 NMatD0=    1 NMtDS0=    0 NMtDT0=    0
 Petite list used in FoFCou.
 Keep R1 ints in memory in canonical form, NReq=440398828.
 Requested convergence on RMS density matrix=1.00D-09 within 128 cycles.
 Requested convergence on MAX density matrix=1.00D-07.
 Requested convergence on             energy=1.00D-07.
 No special actions if energy rises.
 SCF Done:  E(RB3LYP) =  -344.663507447     A.U. after   12 cycles
            NFock= 12  Conv=0.52D-09     -V/T= 2.0046
 Calling FoFJK, ICntrl=      2127 FMM=F ISym2X=0 I1Cent= 0 IOpClX= 0 NMat=1 NMatS=1 NMatT=0.
 ***** Axes restored to original set *****
 -------------------------------------------------------------------
 Center     Atomic                   Forces (Hartrees/Bohr)
 Number     Number              X              Y              Z
 -------------------------------------------------------------------
      1        6          -0.000072006    0.000885728    0.002549275
      2        6          -0.000461395    0.000056383   -0.000929749
      3        6          -0.000186440   -0.000265999    0.002204057
      4        7           0.000567882   -0.000785994   -0.005599682
      5        1           0.000409282    0.000026788    0.000501037
      6        1          -0.000046699    0.000000180    0.000040081
      7        1           0.000080593    0.000046269    0.000281229
      8        7           0.000065561   -0.000383955   -0.000143807
      9        6          -0.002065317    0.011343015    0.003804392
     10        6           0.001681116   -0.008471240   -0.003075954
     11        1           0.003394900   -0.001615791    0.004554747
     12        1          -0.003059621   -0.000748698   -0.004442798
     13        1           0.000070043    0.000049352    0.000016809
     14        1           0.000380314   -0.000490488    0.001017754
     15        1          -0.000733728    0.000376279   -0.000777783
     16        6           0.000000064   -0.000048016   -0.000015076
     17        1           0.000009712    0.000015123    0.000022167
     18        1          -0.000039519   -0.000041068   -0.000015995
     19        1           0.000005257    0.000052130    0.000009295
 -------------------------------------------------------------------
 Cartesian Forces:  Max     0.011343015 RMS     0.002460317

 GradGradGradGradGradGradGradGradGradGradGradGradGradGradGradGradGradGrad
 Berny optimization.
 FormGI is forming the generalized inverse of G from B-inverse, IUseBI=4.
 Internal  Forces:  Max     0.006885791 RMS     0.001397807
 Search for a local minimum.
 Step number   1 out of a maximum of  103 on scan point     2 out of    19
 All quantities printed in internal units (Hartrees-Bohrs-Radians)
 Mixed Optimization -- RFO/linear search
 Second derivative matrix not updated -- first step.
 ITU=  0
     Eigenvalues ---    0.00455   0.00772   0.01199   0.01585   0.02140
     Eigenvalues ---    0.02191   0.02385   0.02408   0.02525   0.03267
     Eigenvalues ---    0.05283   0.05501   0.05791   0.07543   0.07631
     Eigenvalues ---    0.09441   0.11507   0.15998   0.15999   0.16000
     Eigenvalues ---    0.16000   0.16000   0.16000   0.16000   0.16000
     Eigenvalues ---    0.16000   0.21929   0.22810   0.23528   0.24795
     Eigenvalues ---    0.25000   0.30032   0.34408   0.34617   0.34623
     Eigenvalues ---    0.34660   0.34732   0.34794   0.34897   0.34905
     Eigenvalues ---    0.35066   0.35799   0.36356   0.36419   0.36448
     Eigenvalues ---    0.43550   0.46201   0.49590   0.55656   0.56477
     Eigenvalues --- 1000.000001000.000001000.000001000.000001000.00000
     Eigenvalues --- 1000.000001000.000001000.000001000.000001000.00000
     Eigenvalues --- 1000.000001000.000001000.000001000.000001000.00000
     Eigenvalues --- 1000.000001000.000001000.000001000.000001000.00000
     Eigenvalues --- 1000.000001000.000001000.000001000.000001000.00000
     Eigenvalues --- 1000.000001000.000001000.000001000.000001000.00000
     Eigenvalues --- 1000.000001000.000001000.000001000.000001000.00000
     Eigenvalues --- 1000.000001000.000001000.000001000.000001000.00000
     Eigenvalues --- 1000.000001000.000001000.00000
 RFO step:  Lambda=-1.75646871D-03 EMin= 4.55045777D-03
 Linear search not attempted -- first point.
 Iteration  1 RMS(Cart)=  0.03040549 RMS(Int)=  0.00093837
 Iteration  2 RMS(Cart)=  0.00094541 RMS(Int)=  0.00024578
 Iteration  3 RMS(Cart)=  0.00000057 RMS(Int)=  0.00024578
 Iteration  1 RMS(Cart)=  0.00000053 RMS(Int)=  0.00000031
 Variable       Old X    -DE/DX   Delta X   Delta X   Delta X     New X
                                 (Linear)    (Quad)   (Total)
    R1        2.57221  -0.00013   0.00000  -0.00020  -0.00021   2.57201
    R2        2.61309   0.00004   0.00000   0.00003   0.00001   2.61309
    R3        2.03406  -0.00025   0.00000  -0.00067  -0.00067   2.03339
    R4        2.03442  -0.00004   0.00000  -0.00011  -0.00011   2.03431
    R5        2.61201   0.00048   0.00000   0.00105   0.00107   2.61308
    R6        2.52618  -0.00022   0.00000  -0.00044  -0.00045   2.52573
    R7        2.03539  -0.00001   0.00000  -0.00002  -0.00002   2.03537
    R8        2.52763  -0.00009   0.00000  -0.00017  -0.00015   2.52749
    R9        2.79952   0.00036   0.00000   0.00103   0.00103   2.80055
   R10        2.77700  -0.00001   0.00000  -0.00004  -0.00004   2.77696
   R11        2.87986   0.00024   0.00000   0.00079   0.00079   2.88066
   R12        2.06119   0.00112   0.00000   0.00320   0.00320   2.06438
   R13        2.06014  -0.00093   0.00000  -0.00267  -0.00267   2.05747
   R14        2.06233  -0.00008   0.00000  -0.00022  -0.00022   2.06212
   R15        2.06363  -0.00075   0.00000  -0.00216  -0.00216   2.06147
   R16        2.06362   0.00015   0.00000   0.00043   0.00043   2.06405
   R17        2.05836  -0.00001   0.00000  -0.00004  -0.00004   2.05832
   R18        2.05857  -0.00005   0.00000  -0.00015  -0.00015   2.05842
   R19        2.05583  -0.00005   0.00000  -0.00014  -0.00014   2.05568
    A1        1.87133  -0.00039   0.00000  -0.00155  -0.00169   1.86964
    A2        2.28113  -0.00002   0.00000  -0.00050  -0.00046   2.28067
    A3        2.13067   0.00041   0.00000   0.00216   0.00221   2.13287
    A4        2.28496  -0.00011   0.00000  -0.00070  -0.00071   2.28425
    A5        1.86768   0.00014   0.00000   0.00102   0.00090   1.86858
    A6        2.13054  -0.00003   0.00000  -0.00025  -0.00026   2.13028
    A7        2.19179   0.00015   0.00000   0.00074   0.00076   2.19256
    A8        1.89957  -0.00024   0.00000  -0.00104  -0.00115   1.89842
    A9        2.19180   0.00009   0.00000   0.00037   0.00040   2.19220
   A10        1.89156   0.00055   0.00000   0.00263   0.00241   1.89398
   A11        2.19250   0.00060   0.00000   0.00318   0.00316   2.19566
   A12        2.19429  -0.00106   0.00000  -0.00351  -0.00354   2.19075
   A13        1.89411  -0.00003   0.00000   0.00009   0.00004   1.89415
   A14        2.19166   0.00006   0.00000   0.00011   0.00013   2.19179
   A15        2.19741  -0.00002   0.00000  -0.00021  -0.00019   2.19722
   A16        1.95088   0.00114   0.00000   0.00469   0.00377   1.95464
   A17        1.86761  -0.00293   0.00000  -0.00210  -0.00314   1.86447
   A18        1.85781   0.00254   0.00000   0.00076  -0.00011   1.85769
   A19        1.87484   0.00642   0.00000   0.06325   0.06340   1.93825
   A20        2.02591  -0.00689   0.00000  -0.06152  -0.06128   1.96462
   A21        1.87996  -0.00027   0.00000  -0.00222  -0.00126   1.87870
   A22        1.90460  -0.00011   0.00000  -0.00109  -0.00113   1.90347
   A23        1.94701  -0.00169   0.00000  -0.01198  -0.01198   1.93502
   A24        1.94125   0.00199   0.00000   0.01425   0.01426   1.95551
   A25        1.88274   0.00044   0.00000  -0.00117  -0.00121   1.88152
   A26        1.88931  -0.00056   0.00000  -0.00037  -0.00040   1.88891
   A27        1.89716  -0.00008   0.00000   0.00021   0.00026   1.89742
   A28        1.90862   0.00002   0.00000   0.00017   0.00017   1.90879
   A29        1.90963  -0.00001   0.00000  -0.00013  -0.00013   1.90949
   A30        1.90096   0.00000   0.00000   0.00000   0.00000   1.90096
   A31        1.92272   0.00000   0.00000   0.00001   0.00001   1.92273
   A32        1.91076   0.00001   0.00000   0.00017   0.00017   1.91093
   A33        1.91098  -0.00002   0.00000  -0.00021  -0.00021   1.91077
    D1       -3.12539  -0.00028   0.00000  -0.00820  -0.00818  -3.13357
    D2        0.02079  -0.00074   0.00000  -0.02579  -0.02578  -0.00498
    D3        0.00481   0.00004   0.00000   0.00232   0.00231   0.00712
    D4       -3.13219  -0.00042   0.00000  -0.01528  -0.01529   3.13571
    D5       -0.03076   0.00102   0.00000   0.03467   0.03468   0.00392
    D6       -3.07162   0.00010   0.00000   0.01094   0.01087  -3.06075
    D7        3.12102   0.00073   0.00000   0.02527   0.02530  -3.13687
    D8        0.08016  -0.00019   0.00000   0.00154   0.00149   0.08165
    D9       -0.00365   0.00020   0.00000   0.00797   0.00798   0.00434
   D10        3.14104   0.00031   0.00000   0.01211   0.01211  -3.13003
   D11       -3.14114  -0.00021   0.00000  -0.00772  -0.00771   3.13433
   D12        0.00354  -0.00011   0.00000  -0.00358  -0.00358  -0.00004
   D13       -3.11943  -0.00064   0.00000  -0.01970  -0.01971  -3.13914
   D14       -0.07871   0.00040   0.00000   0.00455   0.00451  -0.07420
   D15        0.02878  -0.00090   0.00000  -0.02999  -0.03001  -0.00123
   D16        3.06951   0.00014   0.00000  -0.00574  -0.00580   3.06371
   D17       -0.01571   0.00044   0.00000   0.01381   0.01379  -0.00192
   D18        3.12277   0.00033   0.00000   0.00966   0.00965   3.13242
   D19        3.13251   0.00018   0.00000   0.00352   0.00349   3.13600
   D20       -0.01220   0.00007   0.00000  -0.00063  -0.00065  -0.01285
   D21        1.08410   0.00507   0.00000   0.00000   0.00000   1.08410
   D22       -0.96393  -0.00155   0.00000  -0.07781  -0.07772  -1.04165
   D23       -2.97040  -0.00107   0.00000  -0.07464  -0.07476  -3.04516
   D24       -1.93966   0.00389   0.00000  -0.02819  -0.02818  -1.96784
   D25        2.29550  -0.00273   0.00000  -0.10601  -0.10590   2.18960
   D26        0.28902  -0.00225   0.00000  -0.10284  -0.10294   0.18608
   D27       -1.04149  -0.00004   0.00000  -0.00114  -0.00113  -1.04262
   D28        1.06586  -0.00004   0.00000  -0.00111  -0.00110   1.06476
   D29       -3.12897  -0.00007   0.00000  -0.00145  -0.00144  -3.13041
   D30        2.10373   0.00008   0.00000   0.00370   0.00370   2.10742
   D31       -2.07210   0.00008   0.00000   0.00373   0.00373  -2.06838
   D32        0.01624   0.00006   0.00000   0.00340   0.00339   0.01963
   D33       -3.11397  -0.00036   0.00000  -0.02887  -0.02892   3.14030
   D34       -1.03538  -0.00093   0.00000  -0.03841  -0.03842  -1.07381
   D35        1.08603  -0.00082   0.00000  -0.03650  -0.03656   1.04947
   D36       -1.07030   0.00063   0.00000   0.00973   0.01028  -1.06002
   D37        1.00829   0.00006   0.00000   0.00019   0.00078   1.00906
   D38        3.12970   0.00017   0.00000   0.00210   0.00264   3.13234
   D39        1.03403   0.00062   0.00000   0.01433   0.01381   1.04785
   D40        3.11262   0.00005   0.00000   0.00480   0.00431   3.11693
   D41       -1.04915   0.00016   0.00000   0.00670   0.00617  -1.04298
         Item               Value     Threshold  Converged?
 Maximum Force            0.004625     0.000450     NO 
 RMS     Force            0.001113     0.000300     NO 
 Maximum Displacement     0.152088     0.001800     NO 
 RMS     Displacement     0.030396     0.001200     NO 
 Predicted change in Energy=-9.239483D-04
 GradGradGradGradGradGradGradGradGradGradGradGradGradGradGradGradGradGrad

                          Input orientation:                          
 ---------------------------------------------------------------------
 Center     Atomic      Atomic             Coordinates (Angstroms)
 Number     Number       Type             X           Y           Z
 ---------------------------------------------------------------------
      1          6           0       -0.178628    1.271707    0.030165
      2          6           0        1.161123    1.193545   -0.196567
      3          6           0        0.431474   -0.834332    0.284681
      4          7           0       -0.616644   -0.006013    0.326273
      5          1           0       -0.845797    2.115603    0.006722
      6          1           0        1.878711    1.955529   -0.448200
      7          1           0        0.400669   -1.894909    0.469910
      8          7           0        1.524350   -0.130164   -0.029400
      9          6           0       -2.025210   -0.410109    0.547490
     10          6           0       -2.885321   -0.183301   -0.690450
     11          1           0       -2.392950    0.175119    1.393461
     12          1           0       -2.001574   -1.454523    0.854174
     13          1           0       -3.908298   -0.496797   -0.475951
     14          1           0       -2.909686    0.873893   -0.958347
     15          1           0       -2.526035   -0.754301   -1.549449
     16          6           0        2.885533   -0.666989   -0.165223
     17          1           0        3.251249   -0.473435   -1.172783
     18          1           0        3.536496   -0.192648    0.568092
     19          1           0        2.860782   -1.739992    0.011992
 ---------------------------------------------------------------------
                    Distance matrix (angstroms):
                    1          2          3          4          5
     1  C    0.000000
     2  C    1.361048   0.000000
     3  C    2.207352   2.208228   0.000000
     4  N    1.382789   2.207432   1.336561   0.000000
     5  H    1.076022   2.217937   3.226577   2.157748   0.000000
     6  H    2.220156   1.076509   3.227218   3.267148   2.766861
     7  H    3.249064   3.249774   1.077071   2.150229   4.225213
     8  N    2.206564   1.382781   1.337489   2.173885   3.265329
     9  C    2.550685   3.643905   2.506857   1.481988   2.839484
    10  C    3.156346   4.302712   3.517932   2.492398   3.151296
    11  H    2.822109   4.024527   3.197774   2.080135   2.842922
    12  H    3.381487   4.256639   2.574623   2.072412   3.847051
    13  H    4.158629   5.351107   4.418836   3.423363   4.054198
    14  H    2.931568   4.153791   3.953037   2.771737   2.594772
    15  H    3.479973   4.384009   3.480991   2.779216   3.671678
    16  C    3.631226   2.536958   2.500564   3.597736   4.657811
    17  H    4.031955   2.846128   3.194617   4.174476   4.987999
    18  H    4.029374   2.854581   3.183276   4.164359   4.984742
    19  H    4.278864   3.396760   2.606936   3.898455   5.348305
                    6          7          8          9         10
[...]
     17          1           0        3.475141   -0.716831    0.038615
     18          1           0        3.139223    0.806263    0.909204
     19          1           0        2.613125   -0.747949    1.593364
 ---------------------------------------------------------------------
                    Distance matrix (angstroms):
                    1          2          3          4          5
     1  C    0.000000
     2  C    1.361929   0.000000
     3  C    2.206686   2.209164   0.000000
     4  N    1.381192   2.208122   1.337357   0.000000
     5  H    1.076312   2.220033   3.225350   2.154440   0.000000
     6  H    2.221560   1.076424   3.228085   3.267739   2.770608
     7  H    3.248672   3.250015   1.076903   2.152212   4.224160
     8  N    2.205085   1.382132   1.337490   2.173470   3.264561
     9  C    2.552400   3.648090   2.508784   1.483461   2.837390
    10  C    3.526025   4.500448   3.192595   2.494086   3.797810
    11  H    3.265001   4.214593   2.751633   2.087078   3.634173
    12  H    2.609911   3.909345   3.326081   2.068720   2.463632
    13  H    4.428650   5.503285   4.183533   3.425691   4.542118
    14  H    3.981887   4.694716   3.015443   2.793572   4.486682
    15  H    3.436358   4.392264   3.528507   2.759162   3.576599
    16  C    3.629923   2.535755   2.500072   3.597386   4.657589
    17  H    4.028302   2.851520   3.183874   4.164617   4.985391
    18  H    4.030185   2.845832   3.193019   4.173076   4.987206
    19  H    4.277362   3.395816   2.606110   3.898190   5.347400
                    6          7          8          9         10
     6  H    0.000000
     7  H    4.225220   0.000000
     8  N    2.156432   2.150076   0.000000
     9  C    4.676351   2.848309   3.609343   0.000000
    10  C    5.507598   3.274879   4.322681   1.523447   0.000000
    11  H    5.258033   2.799162   3.958531   1.090852   2.178959
    12  H    4.827218   3.840092   4.217565   1.089276   2.174912
    13  H    6.507056   4.168335   5.361920   2.145522   1.091344
    14  H    5.719212   2.779211   4.201590   2.176868   1.092039
    15  H    5.293497   3.814718   4.420910   2.171490   1.091570
    16  C    2.822330   2.841415   1.469545   4.971052   5.557296
    17  H    2.894585   3.567268   2.099731   5.558033   6.348131
    18  H    2.882152   3.582060   2.099168   5.562409   5.963742
    19  H    3.850501   2.504475   2.092733   5.093790   5.548608
                   11         12         13         14         15
    11  H    0.000000
    12  H    1.759152   0.000000
    13  H    2.512098   2.498434   0.000000
    14  H    2.530259   3.086510   1.763911   0.000000
    15  H    3.086036   2.530773   1.768692   1.774759   0.000000
    16  C    5.194216   5.656299   6.601319   5.230263   5.665072
    17  H    5.685466   6.142667   7.362398   6.100832   6.505123
    18  H    5.941501   6.215196   7.043352   5.628486   5.888884
    19  H    5.164094   5.926723   6.544309   5.032480   5.792979
                   16         17         18         19
    16  C    0.000000
    17  H    1.089261   0.000000
    18  H    1.089203   1.786220   0.000000
    19  H    1.087798   1.778000   1.777760   0.000000
 Stoichiometry    C6H11N2(1+)
 Framework group  C1[X(C6H11N2)]
 Deg. of freedom    51
 Full point group                 C1      NOp   1
 Largest Abelian subgroup         C1      NOp   1
 Largest concise Abelian subgroup C1      NOp   1
                         Standard orientation:                         
 ---------------------------------------------------------------------
 Center     Atomic      Atomic             Coordinates (Angstroms)
 Number     Number       Type             X           Y           Z
 ---------------------------------------------------------------------
      1          6           0        0.023090    1.443033   -0.062626
      2          6           0       -1.301371    1.179147   -0.238753
      3          6           0       -0.291425   -0.711489    0.295956
      4          7           0        0.636562    0.251165    0.270232
      5          1           0        0.573290    2.364535   -0.143625
      6          1           0       -2.121091    1.826195   -0.499668
      7          1           0       -0.116545   -1.748412    0.528178
      8          7           0       -1.476790   -0.172496   -0.009452
      9          6           0        2.084495    0.059427    0.529814
     10          6           0        2.773231   -0.697582   -0.598668
     11          1           0        2.177853   -0.460975    1.483976
     12          1           0        2.502030    1.057436    0.656961
     13          1           0        3.837505   -0.785516   -0.373676
     14          1           0        2.371395   -1.706908   -0.709743
     15          1           0        2.667310   -0.171497   -1.549216
     16          6           0       -2.756443   -0.891538   -0.080380
     17          1           0       -3.446437   -0.474905    0.652297
     18          1           0       -3.170003   -0.794104   -1.083295
     19          1           0       -2.583175   -1.942529    0.140298
 ---------------------------------------------------------------------
 Rotational constants (GHZ):      4.8354439      1.3159852      1.1189749

 **********************************************************************

            Population analysis using the SCF density.

 **********************************************************************

 Orbital symmetries:
       Occupied  (A) (A) (A) (A) (A) (A) (A) (A) (A) (A) (A) (A)
                 (A) (A) (A) (A) (A) (A) (A) (A) (A) (A) (A) (A)
                 (A) (A) (A) (A) (A) (A)
       Virtual   (A) (A) (A) (A) (A) (A) (A) (A) (A) (A) (A) (A)
                 (A) (A) (A) (A) (A) (A) (A) (A) (A) (A) (A) (A)
                 (A) (A) (A) (A) (A) (A) (A) (A) (A) (A) (A) (A)
                 (A) (A) (A) (A) (A) (A) (A) (A) (A) (A) (A) (A)
                 (A) (A) (A) (A) (A) (A) (A) (A) (A) (A) (A) (A)
                 (A) (A) (A) (A) (A) (A) (A) (A) (A) (A) (A) (A)
                 (A) (A) (A) (A) (A) (A) (A) (A) (A) (A) (A) (A)
                 (A) (A) (A) (A) (A) (A) (A) (A) (A) (A) (A) (A)
                 (A) (A) (A) (A) (A) (A) (A) (A) (A) (A) (A) (A)
                 (A) (A) (A) (A) (A) (A) (A) (A) (A) (A) (A) (A)
                 (A) (A) (A) (A) (A) (A) (A) (A) (A) (A) (A) (A)
                 (A) (A) (A) (A) (A) (A) (A) (A) (A) (A) (A) (A)
                 (A) (A) (A) (A) (A) (A) (A) (A) (A) (A) (A) (A)
                 (A) (A) (A) (A) (A) (A) (A) (A) (A) (A) (A) (A)
                 (A) (A) (A) (A) (A) (A) (A) (A) (A) (A) (A) (A)
                 (A) (A) (A) (A) (A) (A) (A) (A) (A) (A) (A) (A)
                 (A) (A) (A) (A) (A) (A) (A) (A) (A) (A) (A) (A)
                 (A) (A) (A) (A) (A) (A) (A) (A)
 The electronic state is 1-A.
 Alpha  occ. eigenvalues --  -14.57883 -14.57348 -10.44056 -10.39303 -10.39166
 Alpha  occ. eigenvalues --  -10.38331 -10.38154 -10.31389  -1.24498  -1.12655
 Alpha  occ. eigenvalues --   -0.97528  -0.94365  -0.89870  -0.82326  -0.80799
 Alpha  occ. eigenvalues --   -0.77908  -0.72200  -0.67182  -0.64985  -0.64810
 Alpha  occ. eigenvalues --   -0.63615  -0.62485  -0.61280  -0.59336  -0.57752
 Alpha  occ. eigenvalues --   -0.55183  -0.53266  -0.51529  -0.47630  -0.43700
 Alpha virt. eigenvalues --   -0.19430  -0.15817  -0.13386  -0.11648  -0.11041
 Alpha virt. eigenvalues --   -0.10049  -0.09476  -0.08749  -0.08425  -0.07753
 Alpha virt. eigenvalues --   -0.06649  -0.06403  -0.05342  -0.04525  -0.04328
 Alpha virt. eigenvalues --   -0.03478  -0.02951  -0.02201  -0.01633  -0.01448
 Alpha virt. eigenvalues --   -0.00118   0.00555   0.01780   0.02062   0.02605
 Alpha virt. eigenvalues --    0.03415   0.03975   0.04711   0.05066   0.05193
 Alpha virt. eigenvalues --    0.05343   0.06446   0.07194   0.07734   0.08105
 Alpha virt. eigenvalues --    0.08403   0.08792   0.09538   0.10254   0.11277
 Alpha virt. eigenvalues --    0.11975   0.12439   0.13919   0.14468   0.15108
 Alpha virt. eigenvalues --    0.15289   0.16990   0.18489   0.21440   0.22484
 Alpha virt. eigenvalues --    0.24805   0.25618   0.27098   0.27725   0.27933
 Alpha virt. eigenvalues --    0.30355   0.32599   0.35186   0.36581   0.37256
 Alpha virt. eigenvalues --    0.39015   0.40209   0.40553   0.41910   0.43334
 Alpha virt. eigenvalues --    0.44407   0.44929   0.46550   0.48505   0.48911
 Alpha virt. eigenvalues --    0.50756   0.51165   0.51446   0.52604   0.54327
 Alpha virt. eigenvalues --    0.55595   0.57078   0.57716   0.59173   0.60888
 Alpha virt. eigenvalues --    0.61779   0.64416   0.65623   0.68401   0.68755
 Alpha virt. eigenvalues --    0.72211   0.76667   0.76839   0.78806   0.80539
 Alpha virt. eigenvalues --    0.81934   0.85055   0.88681   0.88944   0.90478
 Alpha virt. eigenvalues --    0.91186   0.96669   0.98777   1.05189   1.09270
 Alpha virt. eigenvalues --    1.11993   1.14487   1.16193   1.22402   1.24952
 Alpha virt. eigenvalues --    1.27452   1.28172   1.30984   1.32263   1.35625
 Alpha virt. eigenvalues --    1.37434   1.37490   1.38837   1.40733   1.41356
 Alpha virt. eigenvalues --    1.43186   1.44189   1.45601   1.46182   1.47499
 Alpha virt. eigenvalues --    1.47944   1.50875   1.51834   1.53870   1.54936
 Alpha virt. eigenvalues --    1.56870   1.61364   1.62121   1.63718   1.65782
 Alpha virt. eigenvalues --    1.66238   1.69411   1.70099   1.74408   1.79809
 Alpha virt. eigenvalues --    1.83348   1.86564   1.89820   1.91291   1.94360
 Alpha virt. eigenvalues --    1.96131   1.97243   2.00766   2.01328   2.05366
 Alpha virt. eigenvalues --    2.09489   2.12694   2.14987   2.18970   2.22706
 Alpha virt. eigenvalues --    2.26077   2.27542   2.30179   2.32558   2.32979
 Alpha virt. eigenvalues --    2.34510   2.35629   2.37577   2.38646   2.39842
 Alpha virt. eigenvalues --    2.40237   2.42292   2.43517   2.46553   2.47109
 Alpha virt. eigenvalues --    2.48684   2.49916   2.50920   2.55443   2.56257
 Alpha virt. eigenvalues --    2.58199   2.61321   2.62389   2.64291   2.68872
 Alpha virt. eigenvalues --    2.70162   2.73736   2.77756   2.80774   2.81570
 Alpha virt. eigenvalues --    2.82620   2.94323   3.05430   3.11515   3.21910
 Alpha virt. eigenvalues --    3.39552   3.42174   3.47094   3.49729   3.57180
 Alpha virt. eigenvalues --    3.58197   3.63875   3.66359   3.66609   3.68485
 Alpha virt. eigenvalues --    3.73150   3.74890   3.75501   3.94053   4.06822
 Alpha virt. eigenvalues --    4.55207   4.74929   4.78516   5.09275  23.57658
 Alpha virt. eigenvalues --   23.69065  23.72731  23.74976  23.82201  24.00404
 Alpha virt. eigenvalues --   35.28181  35.43484
          Condensed to atoms (all electrons):
               1          2          3          4          5          6
     1  C    5.495701   0.065808  -0.092178   0.129046   0.457223  -0.070499
     2  C    0.065808   5.514878  -0.081326   0.149979  -0.050962   0.474004
     3  C   -0.092178  -0.081326   5.080101   0.375221   0.011361   0.010119
     4  N    0.129046   0.149979   0.375221   6.649107  -0.057844   0.026722
     5  H    0.457223  -0.050962   0.011361  -0.057844   0.449743  -0.002285
     6  H   -0.070499   0.474004   0.010119   0.026722  -0.002285   0.448480
     7  H    0.005170   0.008372   0.428844  -0.033632  -0.000055  -0.000018
     8  N    0.159893   0.112251   0.467775  -0.218179   0.023508  -0.065666
     9  C   -0.071663   0.003763  -0.048462   0.128816  -0.024105   0.001116
    10  C   -0.008154   0.007368  -0.025150  -0.064846   0.004824  -0.000107
    11  H    0.002253  -0.004692  -0.011030  -0.020386   0.000174   0.000011
    12  H   -0.005113   0.012341   0.010333  -0.064288   0.000988   0.000035
    13  H   -0.000934   0.002846   0.000453   0.016434  -0.000032   0.000000
    14  H    0.001608  -0.005405   0.012204  -0.031790  -0.000010   0.000005
    15  H    0.005183  -0.003161  -0.011245   0.008411   0.000117  -0.000003
    16  C    0.017631  -0.113004  -0.072879  -0.002072   0.000898  -0.008995
    17  H    0.001521  -0.008078  -0.015029  -0.002983   0.000005  -0.000587
    18  H    0.011326  -0.015076  -0.009832  -0.005515   0.000009  -0.000571
    19  H   -0.007020   0.011663   0.026219   0.012883   0.000013   0.000094
               7          8          9         10         11         12
     1  C    0.005170   0.159893  -0.071663  -0.008154   0.002253  -0.005113
     2  C    0.008372   0.112251   0.003763   0.007368  -0.004692   0.012341
     3  C    0.428844   0.467775  -0.048462  -0.025150  -0.011030   0.010333
     4  N   -0.033632  -0.218179   0.128816  -0.064846  -0.020386  -0.064288
     5  H   -0.000055   0.023508  -0.024105   0.004824   0.000174   0.000988
     6  H   -0.000018  -0.065666   0.001116  -0.000107   0.000011   0.000035
     7  H    0.442890  -0.037534   0.001066   0.000013  -0.000499   0.000265
     8  N   -0.037534   6.500000  -0.011076   0.001357   0.003238  -0.004671
     9  C    0.001066  -0.011076   5.320128   0.085860   0.437788   0.451382
    10  C    0.000013   0.001357   0.085860   5.245902  -0.050689  -0.050429
    11  H   -0.000499   0.003238   0.437788  -0.050689   0.477052  -0.028137
    12  H    0.000265  -0.004671   0.451382  -0.050429  -0.028137   0.503379
    13  H   -0.000095  -0.000510  -0.065306   0.431182  -0.003330  -0.002866
    14  H    0.001112   0.000585   0.015867   0.373799  -0.008978   0.006799
    15  H   -0.000047   0.000905  -0.027934   0.410359   0.005536  -0.006944
    16  C   -0.005570   0.223940  -0.004158   0.001569   0.000012  -0.000223
    17  H    0.000067  -0.024812  -0.001335  -0.000052  -0.000001  -0.000001
    18  H    0.000056  -0.027463   0.000030  -0.000111   0.000002  -0.000002
    19  H    0.001236  -0.048360   0.003252   0.000205   0.000003   0.000003
              13         14         15         16         17         18
     1  C   -0.000934   0.001608   0.005183   0.017631   0.001521   0.011326
     2  C    0.002846  -0.005405  -0.003161  -0.113004  -0.008078  -0.015076
     3  C    0.000453   0.012204  -0.011245  -0.072879  -0.015029  -0.009832
     4  N    0.016434  -0.031790   0.008411  -0.002072  -0.002983  -0.005515
     5  H   -0.000032  -0.000010   0.000117   0.000898   0.000005   0.000009
     6  H    0.000000   0.000005  -0.000003  -0.008995  -0.000587  -0.000571
     7  H   -0.000095   0.001112  -0.000047  -0.005570   0.000067   0.000056
     8  N   -0.000510   0.000585   0.000905   0.223940  -0.024812  -0.027463
     9  C   -0.065306   0.015867  -0.027934  -0.004158  -0.001335   0.000030
    10  C    0.431182   0.373799   0.410359   0.001569  -0.000052  -0.000111
    11  H   -0.003330  -0.008978   0.005536   0.000012  -0.000001   0.000002
    12  H   -0.002866   0.006799  -0.006944  -0.000223  -0.000001  -0.000002
    13  H    0.472428  -0.018976  -0.019842  -0.000037   0.000000   0.000000
    14  H   -0.018976   0.534143  -0.029000  -0.000102   0.000000   0.000003
    15  H   -0.019842  -0.029000   0.500344  -0.000073   0.000001  -0.000003
    16  C   -0.000037  -0.000102  -0.000073   4.952671   0.423539   0.416370
    17  H    0.000000   0.000000   0.000001   0.423539   0.462919  -0.028762
    18  H    0.000000   0.000003  -0.000003   0.416370  -0.028762   0.468859
    19  H    0.000000   0.000008  -0.000001   0.373554  -0.018674  -0.018571
              19
     1  C   -0.007020
     2  C    0.011663
     3  C    0.026219
     4  N    0.012883
     5  H    0.000013
     6  H    0.000094
     7  H    0.001236
     8  N   -0.048360
     9  C    0.003252
    10  C    0.000205
    11  H    0.000003
    12  H    0.000003
    13  H    0.000000
    14  H    0.000008
    15  H   -0.000001
    16  C    0.373554
    17  H   -0.018674
    18  H   -0.018571
    19  H    0.485736
 Mulliken charges:
               1
     1  C   -0.096803
     2  C   -0.081571
     3  C   -0.055500
     4  N    0.004917
     5  H    0.186431
     6  H    0.188146
     7  H    0.188360
     8  N   -0.055181
     9  C   -0.195028
    10  C   -0.362901
    11  H    0.201675
    12  H    0.177150
    13  H    0.188586
    14  H    0.148127
    15  H    0.167396
    16  C   -0.203072
    17  H    0.212262
    18  H    0.209250
    19  H    0.177757
 Sum of Mulliken charges =   1.00000
 Mulliken charges with hydrogens summed into heavy atoms:
               1
     1  C    0.089628
     2  C    0.106575
     3  C    0.132860
     4  N    0.004917
     8  N   -0.055181
     9  C    0.183796
    10  C    0.141207
    16  C    0.396198
 Electronic spatial extent (au):  <R**2>=           1097.5367
 Charge=              1.0000 electrons
 Dipole moment (field-independent basis, Debye):
    X=             -1.3440    Y=             -0.4253    Z=              0.3747  Tot=              1.4586
 Quadrupole moment (field-independent basis, Debye-Ang):
   XX=            -22.1387   YY=            -36.3675   ZZ=            -47.1369
   XY=              1.9109   XZ=              2.0491   YZ=             -1.7594
 Traceless Quadrupole moment (field-independent basis, Debye-Ang):
   XX=             13.0757   YY=             -1.1531   ZZ=            -11.9225
   XY=              1.9109   XZ=              2.0491   YZ=             -1.7594
 Octapole moment (field-independent basis, Debye-Ang**2):
  XXX=            -16.8024  YYY=              3.8545  ZZZ=              0.8995  XYY=             -5.5016
  XXY=             -6.2341  XXZ=             -1.4816  XZZ=              0.4112  YZZ=             -2.4657
  YYZ=             -0.2517  XYZ=              1.8625
 Hexadecapole moment (field-independent basis, Debye-Ang**3):
 XXXX=           -833.8971 YYYY=           -240.6416 ZZZZ=           -105.1261 XXXY=             10.4485
 XXXZ=              9.5438 YYYX=             10.8780 YYYZ=             -9.4415 ZZZX=              5.0931
 ZZZY=             -1.2375 XXYY=           -194.0670 XXZZ=           -180.2570 YYZZ=            -69.0428
 XXYZ=             -0.3867 YYXZ=              4.1345 ZZXY=              1.3967
 N-N= 3.806444074605D+02 E-N=-1.549826624577D+03  KE= 3.431000954871D+02
 1\1\GINC-CX1-3-17-3\Scan\RB3LYP\6-311+G(d,p)\C6H11N2(1+)\CJS14\27-Jan-
 2015\0\\# opt=modredundant b3lyp/6-311+g(d,p) geom=checkpoint scf=conv
 er=9 integral=grid=ultrafine EmpiricalDispersion=gd3bj\\EMIM PES scan 
 of ethyl rotation\\1,1\C,-0.0434650462,0.4504477088,-1.5374833055\C,1.
 2769890165,0.5821274631,-1.2310310329\C,0.3125565255,-0.5814022406,0.3
 803274564\N,-0.6284192042,-0.2781518078,-0.5202992336\H,-0.608434491,0
 .8071886225,-2.3812799574\H,2.0779002389,1.0724432506,-1.7571686656\H,
 0.1600999341,-1.1470843819,1.2839207102\N,1.4786248873,-0.0701627797,-
 0.0293030042\C,-2.0631421031,-0.6426743559,-0.4236010498\C,-2.78288574
 45,0.1477604213,0.6617901813\H,-2.1143914386,-1.7175302636,-0.24466984
 41\H,-2.4888946543,-0.4521799242,-1.4079636353\H,-3.8368922242,-0.1350
 949115,0.6715876563\H,-2.3720781015,-0.0622276773,1.651584133\H,-2.719
 0250279,1.2215578127,0.4763008099\C,2.7642097526,-0.1886199361,0.67269
 6336\H,3.4751414239,-0.7168312685,0.0386148595\H,3.1392234893,0.806263
 3543,0.9092040195\H,2.6131247675,-0.7479490863,1.5933635663\\Version=E
 S64L-G09RevD.01\State=1-A\HF=-344.6646651,-344.6645686,-344.664289,-34
 4.6638989,-344.6635004,-344.6631609,-344.6629163,-344.6628049,-344.662
 8515,-344.6630439,-344.663347,-344.6637265,-344.6641309,-344.6644706,-
 344.6646484,-344.6646364,-344.6644812,-344.6642547,-344.6640244\RMSD=1
 .987e-10,6.731e-10,4.559e-10,3.839e-10,2.843e-10,3.119e-10,6.110e-10,6
 .854e-10,7.360e-10,9.089e-10,5.079e-10,3.267e-10,2.888e-10,5.950e-10,5
 .244e-10,3.245e-10,9.638e-10,7.672e-10,9.269e-10\PG=C01 [X(C6H11N2)]\\
 @


 IF YOU GIVE A BOY AND A PIG EVERYTHING THEY WANT,
 YOU'LL GET A BAD BOY AND A GOOD PIG.
 Job cpu time:       0 days  6 hours 30 minutes  1.8 seconds.
 File lengths (MBytes):  RWF=     30 Int=      0 D2E=      0 Chk=      7 Scr=      1
 Normal termination of Gaussian 09 at Tue Jan 27 20:43:09 2015.
