 Entering Gaussian System, Link 0=g09
 Input=/work/cjs14/CJS_emim_6311_plus_d3_scan.com
 Output=/work/cjs14/CJS_emim_6311_plus_d3_scan.log
 Initial command:
 /apps/gaussian/g09_d01/g09/l1.exe "/tmp/pbs.8721894.cx1b/Gau-25855.inp" -scrdir="/tmp/pbs.8721894.cx1b/"
 Entering Link 1 = /apps/gaussian/g09_d01/g09/l1.exe PID=     25856.
  
 Copyright (c) 1988,1990,1992,1993,1995,1998,2003,2009,2013,
            Gaussian, Inc.  All Rights Reserved.
  
 This is part of the Gaussian(R) 09 program.  It is based on
 the Gaussian(R) 03 system (copyright 2003, Gaussian, Inc.),
 the Gaussian(R) 98 system (copyright 1998, Gaussian, Inc.),
 the Gaussian(R) 94 system (copyright 1995, Gaussian, Inc.),
 the Gaussian 92(TM) system (copyright 1992, Gaussian, Inc.),
 the Gaussian 90(TM) system (copyright 1990, Gaussian, Inc.),
 the Gaussian 88(TM) system (copyright 1988, Gaussian, Inc.),
 the Gaussian 86(TM) system (copyright 1986, Carnegie Mellon
 University), and the Gaussian 82(TM) system (copyright 1983,
 Carnegie Mellon University). Gaussian is a federally registered
 trademark of Gaussian, Inc.
  
 This software contains proprietary and confidential information,
 including trade secrets, belonging to Gaussian, Inc.
  
 This software is provided under written license and may be
 used, copied, transmitted, or stored only in accord with that
 written license.
  
 The following legend is applicable only to US Government
 contracts under FAR:
  
                    RESTRICTED RIGHTS LEGEND
  
 Use, reproduction and disclosure by the US Government is
 subject to restrictions as set forth in subparagraphs (a)
 and (c) of the Commercial Computer Software - Restricted
 Rights clause in FAR 52.227-19.
  
 Gaussian, Inc.
 340 Quinnipiac St., Bldg. 40, Wallingford CT 06492
  
  
 ---------------------------------------------------------------
 Warning -- This program may not be used in any manner that
 competes with the business of Gaussian, Inc. or will provide
 assistance to any competitor of Gaussian, Inc.  The licensee
 of this program is prohibited from giving any competitor of
 Gaussian, Inc. access to this program.  By using this program,
 the user acknowledges that Gaussian, Inc. is engaged in the
 business of creating and licensing software in the field of
 computational chemistry and represents and warrants to the
 licensee that it is not a competitor of Gaussian, Inc. and that
 it will not use this program in any manner prohibited above.
 ---------------------------------------------------------------
  

 Cite this work as:
 Gaussian 09, Revision D.01,
 M. J. Frisch, G. W. Trucks, H. B. Schlegel, G. E. Scuseria, 
 M. A. Robb, J. R. Cheeseman, G. Scalmani, V. Barone, B. Mennucci, 
 G. A. Petersson, H. Nakatsuji, M. Caricato, X. Li, H. P. Hratchian, 
 A. F. Izmaylov, J. Bloino, G. Zheng, J. L. Sonnenberg, M. Hada, 
 M. Ehara, K. Toyota, R. Fukuda, J. Hasegawa, M. Ishida, T. Nakajima, 
 Y. Honda, O. Kitao, H. Nakai, T. Vreven, J. A. Montgomery, Jr., 
 J. E. Peralta, F. Ogliaro, M. Bearpark, J. J. Heyd, E. Brothers, 
 K. N. Kudin, V. N. Staroverov, T. Keith, R. Kobayashi, J. Normand, 
 K. Raghavachari, A. Rendell, J. C. Burant, S. S. Iyengar, J. Tomasi, 
 M. Cossi, N. Rega, J. M. Millam, M. Klene, J. E. Knox, J. B. Cross, 
 V. Bakken, C. Adamo, J. Jaramillo, R. Gomperts, R. E. Stratmann, 
 O. Yazyev, A. J. Austin, R. Cammi, C. Pomelli, J. W. Ochterski, 
 R. L. Martin, K. Morokuma, V. G. Zakrzewski, G. A. Voth, 
 P. Salvador, J. J. Dannenberg, S. Dapprich, A. D. Daniels, 
 O. Farkas, J. B. Foresman, J. V. Ortiz, J. Cioslowski, 
 and D. J. Fox, Gaussian, Inc., Wallingford CT, 2013.
 
 ******************************************
 Gaussian 09:  ES64L-G09RevD.01 24-Apr-2013
                27-Jan-2015 
 ******************************************
 %nprocshared=4
 Will use up to    4 processors via shared memory.
 %mem=7500MB
 %chk=CJS_emim_6311_plus_d3_scan.chk
 ----------------------------------------------------------------------
 # opt=modredundant b3lyp/6-311+g(d,p) geom=checkpoint scf=conver=9 int
 egral=grid=ultrafine EmpiricalDispersion=gd3bj
 ----------------------------------------------------------------------
 1/14=-1,18=120,19=15,26=4,29=2,38=1/1,3;
 2/9=110,12=2,40=1/2;
 3/5=4,6=6,7=111,11=2,14=-4,16=1,25=1,30=1,71=1,74=-5,75=-5,124=41/1,2,3;
 4//1;
 5/5=2,6=9,38=5/2;
 6/7=2,8=2,9=2,10=2,28=1/1;
 7//1,2,3,16;
 1/14=-1,18=20,19=15,26=4/3(2);
 2/9=110/2;
 99//99;
 2/9=110/2;
 3/5=4,6=6,7=111,11=2,14=-2,16=1,25=1,30=1,71=1,74=-5,75=-5,124=41/1,2,3;
 4/5=5,16=3,69=1/1;
 5/5=2,6=9,38=5/2;
 7//1,2,3,16;
 1/14=-1,18=20,19=15,26=4/3(-5);
 2/9=110/2;
 6/7=2,8=2,9=2,10=2,19=2,28=1/1;
 99/9=1/99;
 -------------------------------
 EMIM PES scan of ethyl rotation
 -------------------------------
 Structure from the checkpoint file:  "CJS_emim_6311_plus_d3_scan.chk"
 Charge =  1 Multiplicity = 1
 Redundant internal coordinates found in file.
 C,0,-0.158404902,1.3063218838,0.0874441171
 C,0,1.1819355682,1.2155251402,-0.1327207413
 C,0,0.4106569175,-0.8209192643,0.2356627078
 N,0,-0.6208674171,0.0245269202,0.3183969854
 H,0,-0.8112054318,2.1618673686,0.103904745
 H,0,1.9152851046,1.9755949921,-0.3409784945
 H,0,0.3592271128,-1.8884165681,0.3690667795
 N,0,1.5184514003,-0.1221370022,-0.0364162242
 C,0,-2.0325363454,-0.3534999255,0.5610639039
 C,0,-2.8732308752,-0.2554645764,-0.705697177
 H,0,-2.4051742748,0.3037676539,1.3476751428
 H,0,-2.0201716178,-1.3689882194,0.957389843
 H,0,-3.8995978921,-0.5478977484,-0.477582606
 H,0,-2.8940640501,0.7641232664,-1.0951794912
 H,0,-2.4933496938,-0.9196908751,-1.4843560442
 C,0,2.8697102493,-0.6770974513,-0.1963434327
 H,0,3.242841885,-0.4379501075,-1.1913038097
 H,0,3.5268690113,-0.2545062102,0.5626524488
 H,0,2.8238672513,-1.7572792767,-0.0760886523
 Recover connectivity data from disk.
 The following ModRedundant input section has been read:
 D       1       4       9      10 S  18 10.000                                
 

 GradGradGradGradGradGradGradGradGradGradGradGradGradGradGradGradGradGrad
 Berny optimization.
 Initialization pass.
                           ----------------------------
                           !    Initial Parameters    !
                           ! (Angstroms and Degrees)  !
 --------------------------                            --------------------------
 ! Name  Definition              Value          Derivative Info.                !
 --------------------------------------------------------------------------------
 ! R1    R(1,2)                  1.3613         estimate D2E/DX2                !
 ! R2    R(1,4)                  1.3821         estimate D2E/DX2                !
 ! R3    R(1,5)                  1.0763         estimate D2E/DX2                !
 ! R4    R(2,6)                  1.0765         estimate D2E/DX2                !
 ! R5    R(2,8)                  1.3827         estimate D2E/DX2                !
 ! R6    R(3,4)                  1.3363         estimate D2E/DX2                !
 ! R7    R(3,7)                  1.077          estimate D2E/DX2                !
 ! R8    R(3,8)                  1.3377         estimate D2E/DX2                !
 ! R9    R(4,9)                  1.4814         estimate D2E/DX2                !
 ! R10   R(8,16)                 1.4695         estimate D2E/DX2                !
 ! R11   R(9,10)                 1.5235         estimate D2E/DX2                !
 ! R12   R(9,11)                 1.0907         estimate D2E/DX2                !
 ! R13   R(9,12)                 1.0902         estimate D2E/DX2                !
 ! R14   R(10,13)                1.0913         estimate D2E/DX2                !
 ! R15   R(10,14)                1.0916         estimate D2E/DX2                !
 ! R16   R(10,15)                1.0917         estimate D2E/DX2                !
 ! R17   R(16,17)                1.0892         estimate D2E/DX2                !
 ! R18   R(16,18)                1.0893         estimate D2E/DX2                !
 ! R19   R(16,19)                1.0878         estimate D2E/DX2                !
 ! A1    A(2,1,4)              107.1345         estimate D2E/DX2                !
 ! A2    A(2,1,5)              130.7434         estimate D2E/DX2                !
 ! A3    A(4,1,5)              122.1212         estimate D2E/DX2                !
 ! A4    A(1,2,6)              130.9134         estimate D2E/DX2                !
 ! A5    A(1,2,8)              107.0306         estimate D2E/DX2                !
 ! A6    A(6,2,8)              122.0548         estimate D2E/DX2                !
 ! A7    A(4,3,7)              125.6303         estimate D2E/DX2                !
 ! A8    A(4,3,8)              108.7446         estimate D2E/DX2                !
 ! A9    A(7,3,8)              125.6248         estimate D2E/DX2                !
 ! A10   A(1,4,3)              108.5495         estimate D2E/DX2                !
 ! A11   A(1,4,9)              125.6537         estimate D2E/DX2                !
 ! A12   A(3,4,9)              125.7523         estimate D2E/DX2                !
 ! A13   A(2,8,3)              108.5403         estimate D2E/DX2                !
 ! A14   A(2,8,16)             125.5604         estimate D2E/DX2                !
 ! A15   A(3,8,16)             125.8977         estimate D2E/DX2                !
 ! A16   A(4,9,10)             111.9139         estimate D2E/DX2                !
 ! A17   A(4,9,11)             106.8537         estimate D2E/DX2                !
 ! A18   A(4,9,12)             106.6452         estimate D2E/DX2                !
 ! A19   A(10,9,11)            111.8611         estimate D2E/DX2                !
 ! A20   A(10,9,12)            111.6221         estimate D2E/DX2                !
 ! A21   A(11,9,12)            107.6391         estimate D2E/DX2                !
 ! A22   A(9,10,13)            109.1431         estimate D2E/DX2                !
 ! A23   A(9,10,14)            111.5486         estimate D2E/DX2                !
 ! A24   A(9,10,15)            111.216          estimate D2E/DX2                !
 ! A25   A(13,10,14)           107.8727         estimate D2E/DX2                !
 ! A26   A(13,10,15)           108.2589         estimate D2E/DX2                !
 ! A27   A(14,10,15)           108.6891         estimate D2E/DX2                !
 ! A28   A(8,16,17)            109.36           estimate D2E/DX2                !
 ! A29   A(8,16,18)            109.4151         estimate D2E/DX2                !
 ! A30   A(8,16,19)            108.9181         estimate D2E/DX2                !
 ! A31   A(17,16,18)           110.1602         estimate D2E/DX2                !
 ! A32   A(17,16,19)           109.4776         estimate D2E/DX2                !
 ! A33   A(18,16,19)           109.4892         estimate D2E/DX2                !
 ! D1    D(4,1,2,6)           -179.4638         estimate D2E/DX2                !
 ! D2    D(4,1,2,8)              0.1533         estimate D2E/DX2                !
 ! D3    D(5,1,2,6)              0.1928         estimate D2E/DX2                !
 ! D4    D(5,1,2,8)            179.8099         estimate D2E/DX2                !
 ! D5    D(2,1,4,3)             -0.2141         estimate D2E/DX2                !
 ! D6    D(2,1,4,9)           -177.8972         estimate D2E/DX2                !
 ! D7    D(5,1,4,3)           -179.9069         estimate D2E/DX2                !
 ! D8    D(5,1,4,9)              2.41           estimate D2E/DX2                !
 ! D9    D(1,2,8,3)             -0.04           estimate D2E/DX2                !
 ! D10   D(1,2,8,16)          -179.5961         estimate D2E/DX2                !
 ! D11   D(6,2,8,3)            179.6186         estimate D2E/DX2                !
 ! D12   D(6,2,8,16)             0.0625         estimate D2E/DX2                !
 ! D13   D(7,3,4,1)           -179.9843         estimate D2E/DX2                !
 ! D14   D(7,3,4,9)             -2.3041         estimate D2E/DX2                !
 ! D15   D(8,3,4,1)              0.1911         estimate D2E/DX2                !
 ! D16   D(8,3,4,9)            177.8714         estimate D2E/DX2                !
 ! D17   D(4,3,8,2)             -0.0944         estimate D2E/DX2                !
 ! D18   D(4,3,8,16)           179.4599         estimate D2E/DX2                !
 ! D19   D(7,3,8,2)           -179.9189         estimate D2E/DX2                !
 ! D20   D(7,3,8,16)            -0.3647         estimate D2E/DX2                !
 ! D21   D(1,4,9,10)            72.1144         Scan                            !
 ! D22   D(1,4,9,11)           -50.6535         estimate D2E/DX2                !
 ! D23   D(1,4,9,12)          -165.5537         estimate D2E/DX2                !
 ! D24   D(3,4,9,10)          -105.1787         estimate D2E/DX2                !
 ! D25   D(3,4,9,11)           132.0534         estimate D2E/DX2                !
 ! D26   D(3,4,9,12)            17.1532         estimate D2E/DX2                !
 ! D27   D(2,8,16,17)          -59.8536         estimate D2E/DX2                !
 ! D28   D(2,8,16,18)           60.8881         estimate D2E/DX2                !
 ! D29   D(2,8,16,19)         -179.4593         estimate D2E/DX2                !
 ! D30   D(3,8,16,17)          120.6659         estimate D2E/DX2                !
 ! D31   D(3,8,16,18)         -118.5923         estimate D2E/DX2                !
 ! D32   D(3,8,16,19)            1.0602         estimate D2E/DX2                !
 ! D33   D(4,9,10,13)          179.6959         estimate D2E/DX2                !
 ! D34   D(4,9,10,14)          -61.2027         estimate D2E/DX2                !
 ! D35   D(4,9,10,15)           60.3214         estimate D2E/DX2                !
 ! D36   D(11,9,10,13)         -60.4283         estimate D2E/DX2                !
 ! D37   D(11,9,10,14)          58.6731         estimate D2E/DX2                !
 ! D38   D(11,9,10,15)        -179.8028         estimate D2E/DX2                !
 ! D39   D(12,9,10,13)          60.2516         estimate D2E/DX2                !
 ! D40   D(12,9,10,14)         179.3531         estimate D2E/DX2                !
 ! D41   D(12,9,10,15)         -59.1229         estimate D2E/DX2                !
 --------------------------------------------------------------------------------
 Trust Radius=3.00D-01 FncErr=1.00D-07 GrdErr=1.00D-06
 Number of optimizations in scan=  19
 Number of steps in this run=    103 maximum allowed number of steps=    114.
 GradGradGradGradGradGradGradGradGradGradGradGradGradGradGradGradGradGrad

                          Input orientation:                          
 ---------------------------------------------------------------------
 Center     Atomic      Atomic             Coordinates (Angstroms)
 Number     Number       Type             X           Y           Z
 ---------------------------------------------------------------------
      1          6           0       -0.158405    1.306322    0.087444
      2          6           0        1.181936    1.215525   -0.132721
      3          6           0        0.410657   -0.820919    0.235663
      4          7           0       -0.620867    0.024527    0.318397
      5          1           0       -0.811205    2.161867    0.103905
      6          1           0        1.915285    1.975595   -0.340978
      7          1           0        0.359227   -1.888417    0.369067
      8          7           0        1.518451   -0.122137   -0.036416
      9          6           0       -2.032536   -0.353500    0.561064
     10          6           0       -2.873231   -0.255465   -0.705697
     11          1           0       -2.405174    0.303768    1.347675
     12          1           0       -2.020172   -1.368988    0.957390
     13          1           0       -3.899598   -0.547898   -0.477583
     14          1           0       -2.894064    0.764123   -1.095179
     15          1           0       -2.493350   -0.919691   -1.484356
     16          6           0        2.869710   -0.677097   -0.196343
     17          1           0        3.242842   -0.437950   -1.191304
     18          1           0        3.526869   -0.254506    0.562652
     19          1           0        2.823867   -1.757279   -0.076089
 ---------------------------------------------------------------------
                    Distance matrix (angstroms):
                    1          2          3          4          5
     1  C    0.000000
     2  C    1.361334   0.000000
     3  C    2.207024   2.208548   0.000000
     4  N    1.382103   2.207279   1.336288   0.000000
     5  H    1.076279   2.219046   3.226038   2.156492   0.000000
     6  H    2.220735   1.076512   3.227524   3.267034   2.768821
     7  H    3.248632   3.250091   1.077029   2.150001   4.224337
     8  N    2.206283   1.382699   1.337734   2.173497   3.265527
     9  C    2.547880   3.643625   2.508697   1.481418   2.833322
    10  C    3.230871   4.351607   3.462631   2.490041   3.278856
    11  H    2.764285   3.986255   3.229613   2.078735   2.745949
    12  H    3.373465   4.256940   2.594262   2.075632   3.828443
    13  H    4.213539   5.389858   4.377391   3.422182   4.149593
    14  H    3.029259   4.212347   3.899318   2.777161   2.780250
    15  H    3.588545   4.460245   3.376607   2.765439   3.853334
    16  C    3.630974   2.536661   2.500851   3.597411   4.658220
    17  H    4.030653   2.846386   3.194397   4.173887   4.987175
    18  H    4.030292   2.853638   3.184105   4.164281   4.986803
    19  H    4.278591   3.396574   2.607210   3.898288   5.348445
                    6          7          8          9         10
     6  H    0.000000
     7  H    4.225644   0.000000
     8  N    2.156552   2.151270   0.000000
     9  C    4.671580   2.848397   3.608327   0.000000
    10  C    5.295331   3.777623   4.444388   1.523503   0.000000
    11  H    4.930814   3.661320   4.182337   1.090696   2.179026
    12  H    5.325394   2.505488   3.881255   1.090158   2.175662
    13  H    6.340311   4.544381   5.452629   2.145343   1.091322
    14  H    5.016605   4.445659   4.623498   2.175880   1.091645
    15  H    5.396856   3.537061   4.339029   2.171788   1.091703
    16  C    2.822875   2.844206   1.469510   4.970956   5.780881
    17  H    2.882822   3.585226   2.099292   5.559455   6.138034
    18  H    2.896050   3.569467   2.100035   5.560287   6.524568
    19  H    3.850979   2.507950   2.092696   5.095215   5.925266
                   11         12         13         14         15
    11  H    0.000000
    12  H    1.760302   0.000000
    13  H    2.508027   2.503114   0.000000
    14  H    2.533472   3.086567   1.764631   0.000000
    15  H    3.086264   2.527427   1.768999   1.774052   0.000000
    16  C    5.583054   5.071564   6.776380   6.008837   5.520891
    17  H    6.236718   5.760471   7.178853   6.254265   5.763840
    18  H    6.009748   5.671644   7.504704   6.709277   6.393414
    19  H    5.798094   4.968255   6.843156   6.331726   5.563952
                   16         17         18         19
    16  C    0.000000
    17  H    1.089204   0.000000
    18  H    1.089273   1.786249   0.000000
    19  H    1.087821   1.777603   1.777788   0.000000
 Stoichiometry    C6H11N2(1+)
 Framework group  C1[X(C6H11N2)]
 Deg. of freedom    51
 Full point group                 C1      NOp   1
 Largest Abelian subgroup         C1      NOp   1
 Largest concise Abelian subgroup C1      NOp   1
                         Standard orientation:                         
 ---------------------------------------------------------------------
 Center     Atomic      Atomic             Coordinates (Angstroms)
 Number     Number       Type             X           Y           Z
 ---------------------------------------------------------------------
      1          6           0        0.163277    1.303014   -0.150165
      2          6           0       -1.176772    1.227237    0.077332
      3          6           0       -0.414091   -0.826516   -0.202125
      4          7           0        0.620331    0.010454   -0.325086
      5          1           0        0.819201    2.154473   -0.206376
      6          1           0       -1.906711    1.998622    0.253497
      7          1           0       -0.366997   -1.899080   -0.288049
      8          7           0       -1.518520   -0.112085    0.041505
      9          6           0        2.029904   -0.383399   -0.554397
     10          6           0        2.874487   -0.232352    0.704541
     11          1           0        2.402785    0.236804   -1.370440
     12          1           0        2.012664   -1.415453   -0.905128
     13          1           0        3.899120   -0.538572    0.486971
     14          1           0        2.900191    0.803460    1.048231
     15          1           0        2.494315   -0.859833    1.512968
     16          6           0       -2.871379   -0.654200    0.229500
     17          1           0       -3.240844   -0.369615    1.213812
     18          1           0       -3.529078   -0.263263   -0.545817
     19          1           0       -2.829882   -1.738829    0.157291
 ---------------------------------------------------------------------
 Rotational constants (GHZ):      5.3390164      1.2609972      1.1144000
 Standard basis: 6-311+G(d,p) (5D, 7F)
 There are   250 symmetry adapted cartesian basis functions of A   symmetry.
 There are   242 symmetry adapted basis functions of A   symmetry.
   242 basis functions,   376 primitive gaussians,   250 cartesian basis functions
    30 alpha electrons       30 beta electrons
       nuclear repulsion energy       380.5336769385 Hartrees.
 NAtoms=   19 NActive=   19 NUniq=   19 SFac= 1.00D+00 NAtFMM=   60 NAOKFM=F Big=F
 Integral buffers will be    131072 words long.
 Raffenetti 2 integral format.
 Two-electron integral symmetry is turned on.
 Nuclear repulsion after empirical dispersion term =      380.5060380400 Hartrees.
 One-electron integrals computed using PRISM.
 NBasis=   242 RedAO= T EigKep=  2.11D-05  NBF=   242
 NBsUse=   242 1.00D-06 EigRej= -1.00D+00 NBFU=   242
 ExpMin= 4.38D-02 ExpMax= 6.29D+03 ExpMxC= 9.49D+02 IAcc=3 IRadAn=         5 AccDes= 0.00D+00
 Harris functional with IExCor=  402 and IRadAn=       5 diagonalized for initial guess.
 HarFok:  IExCor=  402 AccDes= 0.00D+00 IRadAn=         5 IDoV= 1 UseB2=F ITyADJ=14
 ICtDFT=  3500011 ScaDFX=  1.000000  1.000000  1.000000  1.000000
 FoFCou: FMM=F IPFlag=           0 FMFlag=      100000 FMFlg1=           0
         NFxFlg=           0 DoJE=T BraDBF=F KetDBF=T FulRan=T
         wScrn=  0.000000 ICntrl=     500 IOpCl=  0 I1Cent=   200000004 NGrid=           0
         NMat0=    1 NMatS0=      1 NMatT0=    0 NMatD0=    1 NMtDS0=    0 NMtDT0=    0
 Petite list used in FoFCou.
 Keep R1 ints in memory in canonical form, NReq=440398828.
 Requested convergence on RMS density matrix=1.00D-09 within 128 cycles.
 Requested convergence on MAX density matrix=1.00D-07.
 Requested convergence on             energy=1.00D-07.
 No special actions if energy rises.
 SCF Done:  E(RB3LYP) =  -344.664665050     A.U. after   15 cycles
            NFock= 15  Conv=0.20D-09     -V/T= 2.0046

 **********************************************************************

            Population analysis using the SCF density.

 **********************************************************************

 Orbital symmetries:
       Occupied  (A) (A) (A) (A) (A) (A) (A) (A) (A) (A) (A) (A)
                 (A) (A) (A) (A) (A) (A) (A) (A) (A) (A) (A) (A)
                 (A) (A) (A) (A) (A) (A)
       Virtual   (A) (A) (A) (A) (A) (A) (A) (A) (A) (A) (A) (A)
                 (A) (A) (A) (A) (A) (A) (A) (A) (A) (A) (A) (A)
                 (A) (A) (A) (A) (A) (A) (A) (A) (A) (A) (A) (A)
                 (A) (A) (A) (A) (A) (A) (A) (A) (A) (A) (A) (A)
                 (A) (A) (A) (A) (A) (A) (A) (A) (A) (A) (A) (A)
                 (A) (A) (A) (A) (A) (A) (A) (A) (A) (A) (A) (A)
                 (A) (A) (A) (A) (A) (A) (A) (A) (A) (A) (A) (A)
                 (A) (A) (A) (A) (A) (A) (A) (A) (A) (A) (A) (A)
                 (A) (A) (A) (A) (A) (A) (A) (A) (A) (A) (A) (A)
                 (A) (A) (A) (A) (A) (A) (A) (A) (A) (A) (A) (A)
                 (A) (A) (A) (A) (A) (A) (A) (A) (A) (A) (A) (A)
                 (A) (A) (A) (A) (A) (A) (A) (A) (A) (A) (A) (A)
                 (A) (A) (A) (A) (A) (A) (A) (A) (A) (A) (A) (A)
                 (A) (A) (A) (A) (A) (A) (A) (A) (A) (A) (A) (A)
                 (A) (A) (A) (A) (A) (A) (A) (A) (A) (A) (A) (A)
                 (A) (A) (A) (A) (A) (A) (A) (A) (A) (A) (A) (A)
                 (A) (A) (A) (A) (A) (A) (A) (A) (A) (A) (A) (A)
                 (A) (A) (A) (A) (A) (A) (A) (A)
 The electronic state is 1-A.
 Alpha  occ. eigenvalues --  -14.57801 -14.57380 -10.44147 -10.39271 -10.39201
 Alpha  occ. eigenvalues --  -10.38355 -10.38134 -10.31270  -1.24509  -1.12670
 Alpha  occ. eigenvalues --   -0.97468  -0.94531  -0.89688  -0.82772  -0.80080
 Alpha  occ. eigenvalues --   -0.78154  -0.72299  -0.67177  -0.65276  -0.64709
 Alpha  occ. eigenvalues --   -0.63589  -0.62580  -0.60614  -0.59635  -0.57737
 Alpha  occ. eigenvalues --   -0.55214  -0.53175  -0.51486  -0.47512  -0.43805
 Alpha virt. eigenvalues --   -0.19237  -0.16003  -0.13381  -0.11700  -0.10961
 Alpha virt. eigenvalues --   -0.10088  -0.09488  -0.08665  -0.08527  -0.07574
 Alpha virt. eigenvalues --   -0.06687  -0.06447  -0.05397  -0.04753  -0.04145
 Alpha virt. eigenvalues --   -0.03108  -0.02939  -0.01856  -0.01791  -0.01250
 Alpha virt. eigenvalues --   -0.00500   0.00658   0.01140   0.02325   0.02822
 Alpha virt. eigenvalues --    0.03660   0.03985   0.04206   0.04947   0.05261
 Alpha virt. eigenvalues --    0.05691   0.06317   0.07209   0.08021   0.08097
 Alpha virt. eigenvalues --    0.08562   0.09277   0.09826   0.10185   0.10532
 Alpha virt. eigenvalues --    0.11294   0.12227   0.13616   0.14771   0.15243
 Alpha virt. eigenvalues --    0.15446   0.16469   0.17600   0.21936   0.22832
 Alpha virt. eigenvalues --    0.24251   0.26037   0.27030   0.27755   0.28472
 Alpha virt. eigenvalues --    0.29740   0.32612   0.35740   0.36467   0.37605
 Alpha virt. eigenvalues --    0.39138   0.39984   0.42039   0.42607   0.43360
 Alpha virt. eigenvalues --    0.44045   0.45587   0.46598   0.48388   0.48575
 Alpha virt. eigenvalues --    0.50945   0.51162   0.52209   0.52762   0.54019
 Alpha virt. eigenvalues --    0.54316   0.57421   0.58122   0.59175   0.59935
 Alpha virt. eigenvalues --    0.61812   0.64831   0.65149   0.67966   0.68514
 Alpha virt. eigenvalues --    0.72025   0.76587   0.78181   0.79273   0.81009
 Alpha virt. eigenvalues --    0.81487   0.84921   0.88495   0.89909   0.90076
 Alpha virt. eigenvalues --    0.90968   0.96023   0.99610   1.05648   1.09581
 Alpha virt. eigenvalues --    1.11470   1.13369   1.15867   1.23159   1.24331
 Alpha virt. eigenvalues --    1.27668   1.27906   1.30566   1.32480   1.35632
 Alpha virt. eigenvalues --    1.37139   1.37600   1.38678   1.40357   1.42864
 Alpha virt. eigenvalues --    1.43099   1.43931   1.45612   1.46812   1.47029
 Alpha virt. eigenvalues --    1.47961   1.49964   1.52392   1.54501   1.56130
 Alpha virt. eigenvalues --    1.59213   1.61139   1.61254   1.63219   1.64193
 Alpha virt. eigenvalues --    1.65789   1.69382   1.70153   1.76025   1.80349
 Alpha virt. eigenvalues --    1.84021   1.86056   1.87345   1.93068   1.94003
 Alpha virt. eigenvalues --    1.94661   1.97263   2.00525   2.03574   2.04750
 Alpha virt. eigenvalues --    2.09129   2.12425   2.14632   2.18491   2.22913
 Alpha virt. eigenvalues --    2.25459   2.28162   2.30907   2.32628   2.34171
 Alpha virt. eigenvalues --    2.34791   2.35003   2.37069   2.37784   2.39666
 Alpha virt. eigenvalues --    2.40526   2.42171   2.43685   2.46304   2.46850
 Alpha virt. eigenvalues --    2.47803   2.49002   2.50184   2.55275   2.58179
 Alpha virt. eigenvalues --    2.59134   2.62469   2.63602   2.64132   2.68294
 Alpha virt. eigenvalues --    2.69285   2.74392   2.77945   2.80545   2.81098
 Alpha virt. eigenvalues --    2.82730   2.94449   3.04671   3.12715   3.21883
 Alpha virt. eigenvalues --    3.39388   3.41383   3.47386   3.50739   3.57162
 Alpha virt. eigenvalues --    3.58648   3.62629   3.65189   3.66996   3.69202
 Alpha virt. eigenvalues --    3.73550   3.75116   3.75613   3.94094   4.07210
 Alpha virt. eigenvalues --    4.55248   4.74903   4.78700   5.09017  23.57582
 Alpha virt. eigenvalues --   23.69032  23.72503  23.75043  23.82372  24.00725
 Alpha virt. eigenvalues --   35.27689  35.43542
          Condensed to atoms (all electrons):
               1          2          3          4          5          6
     1  C    5.607782  -0.036801  -0.075165   0.032780   0.472999  -0.071098
     2  C   -0.036801   5.612989  -0.087723   0.239194  -0.071841   0.474682
     3  C   -0.075165  -0.087723   5.043400   0.430794   0.010385   0.010311
     4  N    0.032780   0.239194   0.430794   6.683397  -0.061168   0.026326
     5  H    0.472999  -0.071841   0.010385  -0.061168   0.448666  -0.002191
     6  H   -0.071098   0.474682   0.010311   0.026326  -0.002191   0.448403
     7  H    0.004668   0.009125   0.429387  -0.033054  -0.000051  -0.000038
     8  N    0.237001   0.042162   0.449863  -0.286763   0.027413  -0.065638
     9  C   -0.076095   0.004897  -0.084629   0.153219  -0.018500   0.001064
    10  C   -0.020522   0.026803  -0.005321  -0.077756   0.005888  -0.000133
    11  H   -0.014805   0.005581  -0.006283  -0.025078  -0.001163   0.000016
    12  H    0.018215  -0.012807   0.018505  -0.061430   0.000203   0.000015
    13  H    0.000082   0.001440   0.002629   0.017582  -0.000117  -0.000001
    14  H    0.019579  -0.014667  -0.003356  -0.025938   0.000652   0.000007
    15  H   -0.008329  -0.000260   0.000278   0.006913  -0.000066   0.000004
    16  C    0.036989  -0.128224  -0.089096  -0.014354   0.000957  -0.009352
    17  H    0.010983  -0.015156  -0.009007  -0.004930   0.000013  -0.000540
    18  H    0.003495  -0.010418  -0.013961  -0.004355   0.000007  -0.000521
    19  H   -0.006561   0.011352   0.023942   0.011780   0.000013   0.000098
               7          8          9         10         11         12
     1  C    0.004668   0.237001  -0.076095  -0.020522  -0.014805   0.018215
     2  C    0.009125   0.042162   0.004897   0.026803   0.005581  -0.012807
     3  C    0.429387   0.449863  -0.084629  -0.005321  -0.006283   0.018505
     4  N   -0.033054  -0.286763   0.153219  -0.077756  -0.025078  -0.061430
     5  H   -0.000051   0.027413  -0.018500   0.005888  -0.001163   0.000203
     6  H   -0.000038  -0.065638   0.001064  -0.000133   0.000016   0.000015
     7  H    0.442757  -0.034061  -0.008688   0.002967   0.000162   0.001381
     8  N   -0.034061   6.567639  -0.022853  -0.004609  -0.006374   0.013487
     9  C   -0.008688  -0.022853   5.346194   0.093121   0.466966   0.403194
    10  C    0.002967  -0.004609   0.093121   5.229655  -0.061190  -0.032004
    11  H    0.000162  -0.006374   0.466966  -0.061190   0.474905  -0.030345
    12  H    0.001381   0.013487   0.403194  -0.032004  -0.030345   0.510842
    13  H   -0.000036  -0.000040  -0.070286   0.434087  -0.003589  -0.003129
    14  H    0.000003   0.004027  -0.001122   0.394366  -0.008716   0.006558
    15  H    0.000101  -0.002941  -0.009260   0.395108   0.005810  -0.008254
    16  C   -0.004039   0.237294  -0.008332   0.000997  -0.000995   0.002797
    17  H    0.000070  -0.028135  -0.000239  -0.000056  -0.000001   0.000000
    18  H    0.000046  -0.025733  -0.001068  -0.000052  -0.000003   0.000004
    19  H    0.001112  -0.047017   0.003314   0.000140   0.000000   0.000022
              13         14         15         16         17         18
     1  C    0.000082   0.019579  -0.008329   0.036989   0.010983   0.003495
     2  C    0.001440  -0.014667  -0.000260  -0.128224  -0.015156  -0.010418
     3  C    0.002629  -0.003356   0.000278  -0.089096  -0.009007  -0.013961
     4  N    0.017582  -0.025938   0.006913  -0.014354  -0.004930  -0.004355
     5  H   -0.000117   0.000652  -0.000066   0.000957   0.000013   0.000007
     6  H   -0.000001   0.000007   0.000004  -0.009352  -0.000540  -0.000521
     7  H   -0.000036   0.000003   0.000101  -0.004039   0.000070   0.000046
     8  N   -0.000040   0.004027  -0.002941   0.237294  -0.028135  -0.025733
     9  C   -0.070286  -0.001122  -0.009260  -0.008332  -0.000239  -0.001068
    10  C    0.434087   0.394366   0.395108   0.000997  -0.000056  -0.000052
    11  H   -0.003589  -0.008716   0.005810  -0.000995  -0.000001  -0.000003
    12  H   -0.003129   0.006558  -0.008254   0.002797   0.000000   0.000004
    13  H    0.473313  -0.018886  -0.021075   0.000076   0.000000   0.000000
    14  H   -0.018886   0.517963  -0.028761   0.000241   0.000001   0.000000
    15  H   -0.021075  -0.028761   0.510639  -0.000720   0.000000   0.000000
    16  C    0.000076   0.000241  -0.000720   4.963300   0.416137   0.423482
    17  H    0.000000   0.000001   0.000000   0.416137   0.469198  -0.028772
    18  H    0.000000   0.000000   0.000000   0.423482  -0.028772   0.464726
    19  H    0.000000   0.000000   0.000000   0.375363  -0.018562  -0.018408
              19
     1  C   -0.006561
     2  C    0.011352
     3  C    0.023942
     4  N    0.011780
     5  H    0.000013
     6  H    0.000098
     7  H    0.001112
     8  N   -0.047017
     9  C    0.003314
    10  C    0.000140
    11  H    0.000000
    12  H    0.000022
    13  H    0.000000
    14  H    0.000000
    15  H    0.000000
    16  C    0.375363
    17  H   -0.018562
    18  H   -0.018408
    19  H    0.486003
 Mulliken charges:
               1
     1  C   -0.135197
     2  C   -0.050327
     3  C   -0.044951
     4  N   -0.007160
     5  H    0.187899
     6  H    0.188585
     7  H    0.188186
     8  N   -0.054721
     9  C   -0.170895
    10  C   -0.381489
    11  H    0.205100
    12  H    0.172745
    13  H    0.187951
    14  H    0.158047
    15  H    0.160814
    16  C   -0.202520
    17  H    0.208995
    18  H    0.211531
    19  H    0.177407
 Sum of Mulliken charges =   1.00000
 Mulliken charges with hydrogens summed into heavy atoms:
               1
     1  C    0.052703
     2  C    0.138258
     3  C    0.143235
     4  N   -0.007160
     8  N   -0.054721
     9  C    0.206950
    10  C    0.125323
    16  C    0.395413
 Electronic spatial extent (au):  <R**2>=           1107.4415
 Charge=              1.0000 electrons
 Dipole moment (field-independent basis, Debye):
    X=             -1.4885    Y=             -0.6535    Z=             -0.3040  Tot=              1.6538
 Quadrupole moment (field-independent basis, Debye-Ang):
   XX=            -21.5695   YY=            -36.4645   ZZ=            -47.3539
   XY=              0.8533   XZ=             -2.4209   YZ=              0.5939
 Traceless Quadrupole moment (field-independent basis, Debye-Ang):
   XX=             13.5598   YY=             -1.3352   ZZ=            -12.2246
   XY=              0.8533   XZ=             -2.4209   YZ=              0.5939
 Octapole moment (field-independent basis, Debye-Ang**2):
  XXX=            -19.3338  YYY=              1.4319  ZZZ=              0.1898  XYY=             -5.5856
  XXY=             -5.8417  XXZ=              2.7465  XZZ=              0.6445  YZZ=             -2.1481
  YYZ=             -1.1272  XYZ=             -0.5201
 Hexadecapole moment (field-independent basis, Debye-Ang**3):
 XXXX=           -864.3572 YYYY=           -207.4792 ZZZZ=           -113.8072 XXXY=              2.8204
 XXXZ=            -11.4281 YYYX=              5.3182 YYYZ=              4.9298 ZZZX=             -7.2288
 ZZZY=             -1.5003 XXYY=           -196.8495 XXZZ=           -187.0972 YYZZ=            -64.3977
 XXYZ=             -0.0734 YYXZ=             -4.7629 ZZXY=              0.5204
 N-N= 3.805060380400D+02 E-N=-1.549557673187D+03  KE= 3.431009833024D+02
 Calling FoFJK, ICntrl=      2127 FMM=F ISym2X=0 I1Cent= 0 IOpClX= 0 NMat=1 NMatS=1 NMatT=0.
 ***** Axes restored to original set *****
 -------------------------------------------------------------------
 Center     Atomic                   Forces (Hartrees/Bohr)
 Number     Number              X              Y              Z
 -------------------------------------------------------------------
      1        6           0.000009291    0.000016633   -0.000021774
      2        6          -0.000006266    0.000015678    0.000019516
      3        6           0.000004468    0.000010130   -0.000000158
      4        7          -0.000012958   -0.000020991    0.000023962
      5        1           0.000005037    0.000003315   -0.000000085
      6        1          -0.000004333    0.000002708   -0.000002744
      7        1           0.000002081    0.000000634    0.000003533
      8        7          -0.000002357   -0.000030396   -0.000016310
      9        6          -0.000021442   -0.000004105   -0.000022596
     10        6           0.000031594    0.000010768   -0.000002079
     11        1           0.000000168    0.000005259   -0.000003593
     12        1           0.000000585   -0.000004012   -0.000007308
     13        1           0.000000331   -0.000005916    0.000021629
     14        1          -0.000001149   -0.000000887    0.000002227
     15        1          -0.000000405   -0.000000080    0.000003212
     16        6           0.000005728   -0.000000088    0.000002246
     17        1          -0.000001077    0.000002543    0.000001066
     18        1          -0.000003675   -0.000000418    0.000003945
     19        1          -0.000005621   -0.000000775   -0.000004685
 -------------------------------------------------------------------
 Cartesian Forces:  Max     0.000031594 RMS     0.000011048

 GradGradGradGradGradGradGradGradGradGradGradGradGradGradGradGradGradGrad
 Berny optimization.
 FormGI is forming the generalized inverse of G from B-inverse, IUseBI=4.
 Internal  Forces:  Max     0.000037658 RMS     0.000007289
 Search for a local minimum.
 Step number   1 out of a maximum of  103 on scan point     1 out of    19
 All quantities printed in internal units (Hartrees-Bohrs-Radians)
 Mixed Optimization -- En-DIIS/RFO-DIIS
 Second derivative matrix not updated -- first step.
 ITU=  0
     Eigenvalues ---    0.00455   0.00772   0.01189   0.01585   0.02140
     Eigenvalues ---    0.02190   0.02385   0.02407   0.02525   0.03306
     Eigenvalues ---    0.05243   0.05503   0.05789   0.07542   0.07631
     Eigenvalues ---    0.09474   0.11496   0.15999   0.16000   0.16000
     Eigenvalues ---    0.16000   0.16000   0.16000   0.16000   0.16000
     Eigenvalues ---    0.16000   0.21947   0.22823   0.23547   0.24967
     Eigenvalues ---    0.24999   0.30032   0.34408   0.34617   0.34623
     Eigenvalues ---    0.34660   0.34732   0.34794   0.34897   0.34905
     Eigenvalues ---    0.35066   0.35799   0.36356   0.36419   0.36448
     Eigenvalues ---    0.43557   0.46213   0.49591   0.55659   0.56479
     Eigenvalues --- 1000.000001000.000001000.000001000.000001000.00000
     Eigenvalues --- 1000.000001000.000001000.000001000.000001000.00000
     Eigenvalues --- 1000.000001000.000001000.000001000.000001000.00000
     Eigenvalues --- 1000.000001000.000001000.000001000.000001000.00000
     Eigenvalues --- 1000.000001000.000001000.000001000.000001000.00000
     Eigenvalues --- 1000.000001000.000001000.000001000.000001000.00000
     Eigenvalues --- 1000.000001000.000001000.000001000.000001000.00000
     Eigenvalues --- 1000.000001000.000001000.000001000.000001000.00000
     Eigenvalues --- 1000.000001000.000001000.00000
 RFO step:  Lambda=-4.14876669D-08 EMin= 4.55045778D-03
 Linear search not attempted -- first point.
 Iteration  1 RMS(Cart)=  0.00021447 RMS(Int)=  0.00000004
 Iteration  2 RMS(Cart)=  0.00000005 RMS(Int)=  0.00000000
 Iteration  1 RMS(Cart)=  0.00000000 RMS(Int)=  0.00000000
 Variable       Old X    -DE/DX   Delta X   Delta X   Delta X     New X
                                 (Linear)    (Quad)   (Total)
    R1        2.57255  -0.00001   0.00000  -0.00002  -0.00002   2.57253
    R2        2.61180   0.00002   0.00000   0.00005   0.00005   2.61184
    R3        2.03387   0.00000   0.00000   0.00000   0.00000   2.03387
    R4        2.03431   0.00000   0.00000   0.00000   0.00000   2.03431
    R5        2.61292   0.00002   0.00000   0.00004   0.00004   2.61296
    R6        2.52522   0.00000   0.00000  -0.00001  -0.00001   2.52521
    R7        2.03529   0.00000   0.00000   0.00000   0.00000   2.03529
    R8        2.52795  -0.00001   0.00000  -0.00002  -0.00002   2.52793
    R9        2.79948  -0.00001   0.00000  -0.00003  -0.00003   2.79944
   R10        2.77697  -0.00001   0.00000  -0.00001  -0.00001   2.77696
   R11        2.87900  -0.00004   0.00000  -0.00013  -0.00013   2.87888
   R12        2.06112   0.00000   0.00000   0.00000   0.00000   2.06112
   R13        2.06010   0.00000   0.00000   0.00000   0.00000   2.06010
   R14        2.06230   0.00001   0.00000   0.00002   0.00002   2.06232
   R15        2.06291   0.00000   0.00000  -0.00001  -0.00001   2.06291
   R16        2.06302   0.00000   0.00000  -0.00001  -0.00001   2.06301
   R17        2.05830   0.00000   0.00000   0.00000   0.00000   2.05829
   R18        2.05843   0.00000   0.00000   0.00000   0.00000   2.05843
   R19        2.05568   0.00000   0.00000   0.00000   0.00000   2.05569
    A1        1.86985   0.00000   0.00000  -0.00001  -0.00001   1.86984
    A2        2.28190   0.00000   0.00000  -0.00003  -0.00003   2.28187
    A3        2.13142   0.00001   0.00000   0.00004   0.00004   2.13146
    A4        2.28487  -0.00001   0.00000  -0.00003  -0.00003   2.28484
    A5        1.86804   0.00000   0.00000   0.00000   0.00000   1.86804
    A6        2.13026   0.00000   0.00000   0.00003   0.00003   2.13029
    A7        2.19266   0.00000   0.00000   0.00000   0.00000   2.19267
    A8        1.89795   0.00000   0.00000   0.00002   0.00002   1.89797
    A9        2.19257   0.00000   0.00000  -0.00002  -0.00002   2.19255
   A10        1.89455   0.00000   0.00000  -0.00001  -0.00001   1.89454
   A11        2.19307   0.00001   0.00000   0.00002   0.00002   2.19310
   A12        2.19479   0.00000   0.00000  -0.00002  -0.00002   2.19477
   A13        1.89439   0.00000   0.00000  -0.00001  -0.00001   1.89438
   A14        2.19144   0.00000   0.00000   0.00001   0.00001   2.19145
   A15        2.19733   0.00000   0.00000   0.00000   0.00000   2.19732
   A16        1.95327   0.00001   0.00000   0.00002   0.00002   1.95329
   A17        1.86495   0.00000   0.00000   0.00000   0.00000   1.86495
   A18        1.86131   0.00000   0.00000  -0.00002  -0.00002   1.86129
   A19        1.95234   0.00000   0.00000  -0.00001  -0.00001   1.95234
   A20        1.94817   0.00000   0.00000  -0.00005  -0.00005   1.94812
   A21        1.87866   0.00001   0.00000   0.00007   0.00007   1.87872
   A22        1.90491  -0.00003   0.00000  -0.00024  -0.00024   1.90467
   A23        1.94689   0.00001   0.00000   0.00005   0.00005   1.94695
   A24        1.94109   0.00000   0.00000   0.00003   0.00003   1.94112
   A25        1.88273   0.00001   0.00000   0.00005   0.00005   1.88278
   A26        1.88947   0.00001   0.00000   0.00004   0.00004   1.88951
   A27        1.89698   0.00000   0.00000   0.00007   0.00007   1.89705
   A28        1.90869   0.00000   0.00000  -0.00001  -0.00001   1.90868
   A29        1.90965   0.00000   0.00000  -0.00002  -0.00002   1.90963
   A30        1.90098  -0.00001   0.00000  -0.00004  -0.00004   1.90094
   A31        1.92266   0.00000   0.00000   0.00003   0.00003   1.92269
   A32        1.91074   0.00000   0.00000   0.00001   0.00001   1.91075
   A33        1.91095   0.00001   0.00000   0.00003   0.00003   1.91098
    D1       -3.13223   0.00000   0.00000   0.00003   0.00003  -3.13220
    D2        0.00268   0.00001   0.00000   0.00031   0.00031   0.00298
    D3        0.00337   0.00000   0.00000  -0.00015  -0.00015   0.00321
    D4        3.13828   0.00000   0.00000   0.00012   0.00012   3.13840
    D5       -0.00374   0.00000   0.00000  -0.00022  -0.00022  -0.00395
    D6       -3.10489   0.00000   0.00000  -0.00009  -0.00009  -3.10499
    D7       -3.13997   0.00000   0.00000  -0.00005  -0.00005  -3.14002
    D8        0.04206   0.00000   0.00000   0.00007   0.00007   0.04213
    D9       -0.00070  -0.00001   0.00000  -0.00029  -0.00029  -0.00099
   D10       -3.13454   0.00000   0.00000  -0.00008  -0.00008  -3.13462
   D11        3.13494   0.00000   0.00000  -0.00004  -0.00004   3.13489
   D12        0.00109   0.00000   0.00000   0.00017   0.00017   0.00126
   D13       -3.14132   0.00000   0.00000   0.00001   0.00001  -3.14131
   D14       -0.04021   0.00000   0.00000  -0.00012  -0.00012  -0.04033
   D15        0.00334   0.00000   0.00000   0.00004   0.00004   0.00337
   D16        3.10444   0.00000   0.00000  -0.00008  -0.00008   3.10436
   D17       -0.00165   0.00000   0.00000   0.00016   0.00016  -0.00149
   D18        3.13217   0.00000   0.00000  -0.00005  -0.00005   3.13211
   D19       -3.14018   0.00000   0.00000   0.00019   0.00019  -3.13999
   D20       -0.00636   0.00000   0.00000  -0.00002  -0.00002  -0.00639
   D21        1.25863   0.00000   0.00000   0.00000   0.00000   1.25863
   D22       -0.88407   0.00000   0.00000   0.00000   0.00000  -0.88407
   D23       -2.88946   0.00000   0.00000  -0.00007  -0.00007  -2.88952
   D24       -1.83572   0.00000   0.00000   0.00014   0.00014  -1.83557
   D25        2.30477   0.00000   0.00000   0.00014   0.00014   2.30491
   D26        0.29938   0.00000   0.00000   0.00007   0.00007   0.29945
   D27       -1.04464   0.00000   0.00000   0.00032   0.00032  -1.04432
   D28        1.06270   0.00000   0.00000   0.00033   0.00033   1.06303
   D29       -3.13216   0.00000   0.00000   0.00034   0.00034  -3.13182
   D30        2.10602   0.00000   0.00000   0.00056   0.00056   2.10658
   D31       -2.06983   0.00001   0.00000   0.00058   0.00058  -2.06925
   D32        0.01850   0.00001   0.00000   0.00058   0.00058   0.01909
   D33        3.13629   0.00000   0.00000  -0.00010  -0.00010   3.13619
   D34       -1.06819   0.00000   0.00000  -0.00016  -0.00016  -1.06834
   D35        1.05281   0.00000   0.00000  -0.00001  -0.00001   1.05279
   D36       -1.05467   0.00000   0.00000  -0.00009  -0.00009  -1.05476
   D37        1.02404   0.00000   0.00000  -0.00015  -0.00015   1.02389
   D38       -3.13815   0.00000   0.00000  -0.00001  -0.00001  -3.13816
   D39        1.05159   0.00000   0.00000  -0.00005  -0.00005   1.05154
   D40        3.13030   0.00000   0.00000  -0.00011  -0.00011   3.13019
   D41       -1.03189   0.00000   0.00000   0.00004   0.00004  -1.03185
         Item               Value     Threshold  Converged?
 Maximum Force            0.000038     0.000450     YES
 RMS     Force            0.000007     0.000300     YES
 Maximum Displacement     0.000999     0.001800     YES
 RMS     Displacement     0.000214     0.001200     YES
 Predicted change in Energy=-2.074388D-08
 Optimization completed.
    -- Stationary point found.
                           ----------------------------
                           !   Optimized Parameters   !
                           ! (Angstroms and Degrees)  !
 --------------------------                            --------------------------
 ! Name  Definition              Value          Derivative Info.                !
 --------------------------------------------------------------------------------
 ! R1    R(1,2)                  1.3613         -DE/DX =    0.0                 !
 ! R2    R(1,4)                  1.3821         -DE/DX =    0.0                 !
 ! R3    R(1,5)                  1.0763         -DE/DX =    0.0                 !
 ! R4    R(2,6)                  1.0765         -DE/DX =    0.0                 !
 ! R5    R(2,8)                  1.3827         -DE/DX =    0.0                 !
 ! R6    R(3,4)                  1.3363         -DE/DX =    0.0                 !
 ! R7    R(3,7)                  1.077          -DE/DX =    0.0                 !
 ! R8    R(3,8)                  1.3377         -DE/DX =    0.0                 !
 ! R9    R(4,9)                  1.4814         -DE/DX =    0.0                 !
 ! R10   R(8,16)                 1.4695         -DE/DX =    0.0                 !
 ! R11   R(9,10)                 1.5235         -DE/DX =    0.0                 !
 ! R12   R(9,11)                 1.0907         -DE/DX =    0.0                 !
 ! R13   R(9,12)                 1.0902         -DE/DX =    0.0                 !
 ! R14   R(10,13)                1.0913         -DE/DX =    0.0                 !
 ! R15   R(10,14)                1.0916         -DE/DX =    0.0                 !
 ! R16   R(10,15)                1.0917         -DE/DX =    0.0                 !
 ! R17   R(16,17)                1.0892         -DE/DX =    0.0                 !
 ! R18   R(16,18)                1.0893         -DE/DX =    0.0                 !
 ! R19   R(16,19)                1.0878         -DE/DX =    0.0                 !
 ! A1    A(2,1,4)              107.1345         -DE/DX =    0.0                 !
 ! A2    A(2,1,5)              130.7434         -DE/DX =    0.0                 !
 ! A3    A(4,1,5)              122.1212         -DE/DX =    0.0                 !
 ! A4    A(1,2,6)              130.9134         -DE/DX =    0.0                 !
 ! A5    A(1,2,8)              107.0306         -DE/DX =    0.0                 !
 ! A6    A(6,2,8)              122.0548         -DE/DX =    0.0                 !
 ! A7    A(4,3,7)              125.6303         -DE/DX =    0.0                 !
 ! A8    A(4,3,8)              108.7446         -DE/DX =    0.0                 !
 ! A9    A(7,3,8)              125.6248         -DE/DX =    0.0                 !
 ! A10   A(1,4,3)              108.5495         -DE/DX =    0.0                 !
 ! A11   A(1,4,9)              125.6537         -DE/DX =    0.0                 !
 ! A12   A(3,4,9)              125.7523         -DE/DX =    0.0                 !
 ! A13   A(2,8,3)              108.5403         -DE/DX =    0.0                 !
 ! A14   A(2,8,16)             125.5604         -DE/DX =    0.0                 !
 ! A15   A(3,8,16)             125.8977         -DE/DX =    0.0                 !
 ! A16   A(4,9,10)             111.9139         -DE/DX =    0.0                 !
 ! A17   A(4,9,11)             106.8537         -DE/DX =    0.0                 !
 ! A18   A(4,9,12)             106.6452         -DE/DX =    0.0                 !
 ! A19   A(10,9,11)            111.8611         -DE/DX =    0.0                 !
 ! A20   A(10,9,12)            111.6221         -DE/DX =    0.0                 !
 ! A21   A(11,9,12)            107.6391         -DE/DX =    0.0                 !
 ! A22   A(9,10,13)            109.1431         -DE/DX =    0.0                 !
 ! A23   A(9,10,14)            111.5486         -DE/DX =    0.0                 !
 ! A24   A(9,10,15)            111.216          -DE/DX =    0.0                 !
 ! A25   A(13,10,14)           107.8727         -DE/DX =    0.0                 !
 ! A26   A(13,10,15)           108.2589         -DE/DX =    0.0                 !
 ! A27   A(14,10,15)           108.6891         -DE/DX =    0.0                 !
 ! A28   A(8,16,17)            109.36           -DE/DX =    0.0                 !
 ! A29   A(8,16,18)            109.4151         -DE/DX =    0.0                 !
 ! A30   A(8,16,19)            108.9181         -DE/DX =    0.0                 !
 ! A31   A(17,16,18)           110.1602         -DE/DX =    0.0                 !
 ! A32   A(17,16,19)           109.4776         -DE/DX =    0.0                 !
 ! A33   A(18,16,19)           109.4892         -DE/DX =    0.0                 !
 ! D1    D(4,1,2,6)           -179.4638         -DE/DX =    0.0                 !
 ! D2    D(4,1,2,8)              0.1533         -DE/DX =    0.0                 !
 ! D3    D(5,1,2,6)              0.1928         -DE/DX =    0.0                 !
 ! D4    D(5,1,2,8)            179.8099         -DE/DX =    0.0                 !
 ! D5    D(2,1,4,3)             -0.2141         -DE/DX =    0.0                 !
 ! D6    D(2,1,4,9)           -177.8972         -DE/DX =    0.0                 !
 ! D7    D(5,1,4,3)           -179.9069         -DE/DX =    0.0                 !
 ! D8    D(5,1,4,9)              2.41           -DE/DX =    0.0                 !
 ! D9    D(1,2,8,3)             -0.04           -DE/DX =    0.0                 !
 ! D10   D(1,2,8,16)          -179.5961         -DE/DX =    0.0                 !
 ! D11   D(6,2,8,3)            179.6186         -DE/DX =    0.0                 !
 ! D12   D(6,2,8,16)             0.0625         -DE/DX =    0.0                 !
 ! D13   D(7,3,4,1)           -179.9843         -DE/DX =    0.0                 !
 ! D14   D(7,3,4,9)             -2.3041         -DE/DX =    0.0                 !
 ! D15   D(8,3,4,1)              0.1911         -DE/DX =    0.0                 !
 ! D16   D(8,3,4,9)            177.8714         -DE/DX =    0.0                 !
 ! D17   D(4,3,8,2)             -0.0944         -DE/DX =    0.0                 !
 ! D18   D(4,3,8,16)           179.4599         -DE/DX =    0.0                 !
 ! D19   D(7,3,8,2)           -179.9189         -DE/DX =    0.0                 !
 ! D20   D(7,3,8,16)            -0.3647         -DE/DX =    0.0                 !
 ! D21   D(1,4,9,10)            72.1144         -DE/DX =    0.0                 !
 ! D22   D(1,4,9,11)           -50.6535         -DE/DX =    0.0                 !
 ! D23   D(1,4,9,12)          -165.5537         -DE/DX =    0.0                 !
 ! D24   D(3,4,9,10)          -105.1787         -DE/DX =    0.0                 !
 ! D25   D(3,4,9,11)           132.0534         -DE/DX =    0.0                 !
 ! D26   D(3,4,9,12)            17.1532         -DE/DX =    0.0                 !
 ! D27   D(2,8,16,17)          -59.8536         -DE/DX =    0.0                 !
 ! D28   D(2,8,16,18)           60.8881         -DE/DX =    0.0                 !
 ! D29   D(2,8,16,19)         -179.4593         -DE/DX =    0.0                 !
 ! D30   D(3,8,16,17)          120.6659         -DE/DX =    0.0                 !
 ! D31   D(3,8,16,18)         -118.5923         -DE/DX =    0.0                 !
 ! D32   D(3,8,16,19)            1.0602         -DE/DX =    0.0                 !
 ! D33   D(4,9,10,13)          179.6959         -DE/DX =    0.0                 !
 ! D34   D(4,9,10,14)          -61.2027         -DE/DX =    0.0                 !
 ! D35   D(4,9,10,15)           60.3214         -DE/DX =    0.0                 !
 ! D36   D(11,9,10,13)         -60.4283         -DE/DX =    0.0                 !
 ! D37   D(11,9,10,14)          58.6731         -DE/DX =    0.0                 !
 ! D38   D(11,9,10,15)        -179.8028         -DE/DX =    0.0                 !
 ! D39   D(12,9,10,13)          60.2516         -DE/DX =    0.0                 !
 ! D40   D(12,9,10,14)         179.3531         -DE/DX =    0.0                 !
 ! D41   D(12,9,10,15)         -59.1229         -DE/DX =    0.0                 !
 --------------------------------------------------------------------------------
 Iteration  1 RMS(Cart)=  0.02487132 RMS(Int)=  0.01425138
 Iteration  2 RMS(Cart)=  0.00038799 RMS(Int)=  0.01424890
 Iteration  3 RMS(Cart)=  0.00000123 RMS(Int)=  0.01424890
 Iteration  4 RMS(Cart)=  0.00000002 RMS(Int)=  0.01424890
 Iteration  1 RMS(Cart)=  0.01542077 RMS(Int)=  0.00883405
 Iteration  2 RMS(Cart)=  0.00956290 RMS(Int)=  0.00981995
 Iteration  3 RMS(Cart)=  0.00593002 RMS(Int)=  0.01123835
 Iteration  4 RMS(Cart)=  0.00367760 RMS(Int)=  0.01232575
 Iteration  5 RMS(Cart)=  0.00228097 RMS(Int)=  0.01305938
 Iteration  6 RMS(Cart)=  0.00141485 RMS(Int)=  0.01353328
 Iteration  7 RMS(Cart)=  0.00087767 RMS(Int)=  0.01383371
 Iteration  8 RMS(Cart)=  0.00054446 RMS(Int)=  0.01402239
 Iteration  9 RMS(Cart)=  0.00033776 RMS(Int)=  0.01414029
 Iteration 10 RMS(Cart)=  0.00020954 RMS(Int)=  0.01421375
 Iteration 11 RMS(Cart)=  0.00012999 RMS(Int)=  0.01425945
 Iteration 12 RMS(Cart)=  0.00008064 RMS(Int)=  0.01428784
 Iteration 13 RMS(Cart)=  0.00005003 RMS(Int)=  0.01430548
 Iteration 14 RMS(Cart)=  0.00003104 RMS(Int)=  0.01431642
 Iteration 15 RMS(Cart)=  0.00001926 RMS(Int)=  0.01432321
 Iteration 16 RMS(Cart)=  0.00001195 RMS(Int)=  0.01432743
 Iteration 17 RMS(Cart)=  0.00000741 RMS(Int)=  0.01433005
 Iteration 18 RMS(Cart)=  0.00000460 RMS(Int)=  0.01433167
 Iteration 19 RMS(Cart)=  0.00000285 RMS(Int)=  0.01433268
 Iteration 20 RMS(Cart)=  0.00000177 RMS(Int)=  0.01433330
 Iteration 21 RMS(Cart)=  0.00000110 RMS(Int)=  0.01433369
 Iteration 22 RMS(Cart)=  0.00000068 RMS(Int)=  0.01433393
 GradGradGradGradGradGradGradGradGradGradGradGradGradGradGradGradGradGrad

                          Input orientation:                          
 ---------------------------------------------------------------------
 Center     Atomic      Atomic             Coordinates (Angstroms)
 Number     Number       Type             X           Y           Z
 ---------------------------------------------------------------------
      1          6           0       -0.134386    1.345766    0.134946
      2          6           0        1.203280    1.234350   -0.092247
      3          6           0        0.389178   -0.797514    0.204119
      4          7           0       -0.626991    0.064870    0.299574
      5          1           0       -0.767162    2.214548    0.193245
      6          1           0        1.953662    1.986179   -0.267432
      7          1           0        0.316675   -1.867029    0.308936
      8          7           0        1.511511   -0.112949   -0.043727
      9          6           0       -2.040879   -0.289086    0.564692
     10          6           0       -2.865374   -0.322119   -0.716543
     11          1           0       -2.390333    0.385749    1.347109
     12          1           0       -2.041028   -1.299681    0.973561
     13          1           0       -3.886305   -0.624422   -0.477091
     14          1           0       -2.909334    0.660555   -1.190800
     15          1           0       -2.455611   -1.038147   -1.432006
     16          6           0        2.851810   -0.689712   -0.218234
     17          1           0        3.233651   -0.424182   -1.203185
     18          1           0        3.514449   -0.306997    0.557087
     19          1           0        2.783430   -1.772298   -0.135415
 ---------------------------------------------------------------------
                    Distance matrix (angstroms):
                    1          2          3          4          5
     1  C    0.000000
     2  C    1.361389   0.000000
     3  C    2.207386   2.208861   0.000000
     4  N    1.382192   2.207057   1.336195   0.000000
     5  H    1.076376   2.219220   3.226415   2.156865   0.000000
     6  H    2.220807   1.076573   3.227835   3.266909   2.768982
     7  H    3.248966   3.250472   1.077082   2.150076   4.224613
     8  N    2.206525   1.382960   1.337792   2.173170   3.265846
     9  C    2.547967   3.643761   2.508722   1.481435   2.833462
    10  C    3.311370   4.400715   3.415512   2.488496   3.415389
    11  H    2.735008   3.963070   3.229894   2.075974   2.703811
    12  H    3.367039   4.252388   2.598098   2.077441   3.818564
    13  H    4.281720   5.432036   4.332870   3.420740   4.270615
    14  H    3.150786   4.295306   3.866774   2.790187   2.986532
    15  H    3.677835   4.510730   3.290537   2.749340   4.009030
    16  C    3.631153   2.536836   2.500912   3.597162   4.658433
    17  H    4.033235   2.847335   3.195452   4.171572   4.991935
    18  H    4.027880   2.852873   3.183161   4.166068   4.982244
    19  H    4.278909   3.396861   2.607284   3.898124   5.348799
                    6          7          8          9         10
     6  H    0.000000
     7  H    4.226007   0.000000
     8  N    2.156822   2.151464   0.000000
     9  C    4.671789   2.848399   3.608417   0.000000
    10  C    5.362187   3.682905   4.433233   1.523958   0.000000
    11  H    4.902899   3.671608   4.172231   1.090732   2.232801
    12  H    5.319257   2.514433   3.881204   1.090173   2.119346
    13  H    6.400345   4.452747   5.439286   2.145545   1.091341
    14  H    5.124317   4.364060   4.632274   2.176646   1.092017
    15  H    5.472155   3.376906   4.303646   2.172533   1.092011
    16  C    2.823027   2.844449   1.469526   4.971104   5.750620
    17  H    2.885107   3.588463   2.099280   5.564558   6.119260
    18  H    2.893880   3.566656   2.100093   5.555361   6.505728
    19  H    3.851245   2.508247   2.092754   5.095490   5.860863
                   11         12         13         14         15
    11  H    0.000000
    12  H    1.761314   0.000000
    13  H    2.566337   2.442420   0.000000
    14  H    2.604969   3.046464   1.764942   0.000000
    15  H    3.123335   2.455002   1.769157   1.774720   0.000000
    16  C    5.575570   5.072701   6.743401   5.996656   5.455581
    17  H    6.228097   5.772952   7.159685   6.238035   5.726869
    18  H    5.997539   5.658816   7.479401   6.727277   6.335037
    19  H    5.798523   4.972785   6.776409   6.280141   5.446804
                   16         17         18         19
    16  C    0.000000
    17  H    1.089238   0.000000
    18  H    1.089350   1.786376   0.000000
    19  H    1.087900   1.777709   1.777936   0.000000
 Stoichiometry    C6H11N2(1+)
 Framework group  C1[X(C6H11N2)]
 Deg. of freedom    51
 Full point group                 C1      NOp   1
 Largest Abelian subgroup         C1      NOp   1
 Largest concise Abelian subgroup C1      NOp   1
                         Standard orientation:                         
 ---------------------------------------------------------------------
 Center     Atomic      Atomic             Coordinates (Angstroms)
 Number     Number       Type             X           Y           Z
 ---------------------------------------------------------------------
      1          6           0        0.127943    1.342477   -0.096130
      2          6           0       -1.208869    1.218032    0.129319
      3          6           0       -0.386680   -0.799645   -0.234072
      4          7           0        0.625683    0.069717   -0.302992
      5          1           0        0.756950    2.215389   -0.127134
      6          1           0       -1.962132    1.960565    0.329939
      7          1           0       -0.309833   -1.864874   -0.373667
      8          7           0       -1.511488   -0.128287    0.037540
      9          6           0        2.040618   -0.269403   -0.581569
     10          6           0        2.867331   -0.340486    0.696688
     11          1           0        2.385946    0.431961   -1.342184
     12          1           0        2.044369   -1.266184   -1.023034
     13          1           0        3.889138   -0.630492    0.446026
     14          1           0        2.907914    0.626454    1.202534
     15          1           0        2.461760   -1.081105    1.389136
     16          6           0       -2.849054   -0.716132    0.195227
     17          1           0       -3.230409   -0.484347    1.188848
     18          1           0       -3.514564   -0.311285   -0.566272
     19          1           0       -2.776239   -1.795156    0.077201
 ---------------------------------------------------------------------
 Rotational constants (GHZ):      5.2343738      1.2660372      1.1142864
 Standard basis: 6-311+G(d,p) (5D, 7F)
 There are   250 symmetry adapted cartesian basis functions of A   symmetry.
 There are   242 symmetry adapted basis functions of A   symmetry.
   242 basis functions,   376 primitive gaussians,   250 cartesian basis functions
    30 alpha electrons       30 beta electrons
       nuclear repulsion energy       380.3970882738 Hartrees.
 NAtoms=   19 NActive=   19 NUniq=   19 SFac= 1.00D+00 NAtFMM=   60 NAOKFM=F Big=F
 Integral buffers will be    131072 words long.
 Raffenetti 2 integral format.
 Two-electron integral symmetry is turned on.
 Nuclear repulsion after empirical dispersion term =      380.3694979936 Hartrees.
 One-electron integrals computed using PRISM.
 NBasis=   242 RedAO= T EigKep=  2.09D-05  NBF=   242
 NBsUse=   242 1.00D-06 EigRej= -1.00D+00 NBFU=   242
 Initial guess from the checkpoint file:  "CJS_emim_6311_plus_d3_scan.chk"
 B after Tr=     0.000000    0.000000    0.000000
         Rot=    0.999320   -0.036592    0.000591   -0.004450 Ang=  -4.23 deg.
 ExpMin= 4.38D-02 ExpMax= 6.29D+03 ExpMxC= 9.49D+02 IAcc=2 IRadAn=         4 AccDes= 0.00D+00
 Harris functional with IExCor=  402 and IRadAn=       4 diagonalized for initial guess.
 HarFok:  IExCor=  402 AccDes= 0.00D+00 IRadAn=         4 IDoV= 1 UseB2=F ITyADJ=14
 ICtDFT=  3500011 ScaDFX=  1.000000  1.000000  1.000000  1.000000
 FoFCou: FMM=F IPFlag=           0 FMFlag=      100000 FMFlg1=           0
         NFxFlg=           0 DoJE=T BraDBF=F KetDBF=T FulRan=T
         wScrn=  0.000000 ICntrl=     500 IOpCl=  0 I1Cent=   200000004 NGrid=           0
         NMat0=    1 NMatS0=      1 NMatT0=    0 NMatD0=    1 NMtDS0=    0 NMtDT0=    0
 Petite list used in FoFCou.
 Keep R1 ints in memory in canonical form, NReq=440398828.
 Requested convergence on RMS density matrix=1.00D-09 within 128 cycles.
 Requested convergence on MAX density matrix=1.00D-07.
 Requested convergence on             energy=1.00D-07.
 No special actions if energy rises.
 SCF Done:  E(RB3LYP) =  -344.663531985     A.U. after   12 cycles
            NFock= 12  Conv=0.53D-09     -V/T= 2.0046
 Calling FoFJK, ICntrl=      2127 FMM=F ISym2X=0 I1Cent= 0 IOpClX= 0 NMat=1 NMatS=1 NMatT=0.
 ***** Axes restored to original set *****
 -------------------------------------------------------------------
 Center     Atomic                   Forces (Hartrees/Bohr)
 Number     Number              X              Y              Z
 -------------------------------------------------------------------
      1        6          -0.000368505   -0.000402666   -0.002402123
      2        6           0.000373426   -0.000000042    0.000947563
      3        6          -0.000027090    0.000000042   -0.002111516
      4        7           0.000768870    0.000980295    0.005399085
      5        1          -0.000203125   -0.000092307   -0.000495186
      6        1          -0.000030094   -0.000048573   -0.000044088
      7        1          -0.000042714    0.000017645   -0.000294060
      8        7          -0.000084273    0.000143557    0.000227711
      9        6           0.002714212   -0.011292512   -0.003093889
     10        6          -0.002676745    0.008837766    0.000794229
     11        1          -0.003498301    0.001122285   -0.004078142
     12        1           0.003001143    0.000965303    0.004970279
     13        1          -0.000057138   -0.000040009   -0.000055213
     14        1          -0.000456415   -0.000288791   -0.000866718
     15        1           0.000603721    0.000080789    0.001097853
     16        6           0.000027774   -0.000015857    0.000059195
     17        1          -0.000018129   -0.000022178    0.000023150
     18        1          -0.000021578    0.000005585   -0.000048310
     19        1          -0.000005040    0.000049670   -0.000029821
 -------------------------------------------------------------------
 Cartesian Forces:  Max     0.011292512 RMS     0.002444139

 GradGradGradGradGradGradGradGradGradGradGradGradGradGradGradGradGradGrad
 Berny optimization.
 FormGI is forming the generalized inverse of G from B-inverse, IUseBI=4.
 Internal  Forces:  Max     0.006650095 RMS     0.001373394
 Search for a local minimum.
 Step number   1 out of a maximum of  103 on scan point     2 out of    19
 All quantities printed in internal units (Hartrees-Bohrs-Radians)
 Mixed Optimization -- RFO/linear search
 Second derivative matrix not updated -- first step.
 ITU=  0
     Eigenvalues ---    0.00455   0.00772   0.01188   0.01586   0.02140
     Eigenvalues ---    0.02191   0.02385   0.02407   0.02525   0.03253
     Eigenvalues ---    0.05294   0.05501   0.05790   0.07543   0.07631
     Eigenvalues ---    0.09439   0.11520   0.15996   0.16000   0.16000
     Eigenvalues ---    0.16000   0.16000   0.16000   0.16000   0.16000
     Eigenvalues ---    0.16000   0.21930   0.22823   0.23549   0.24992
     Eigenvalues ---    0.24997   0.30032   0.34408   0.34617   0.34623
     Eigenvalues ---    0.34660   0.34732   0.34794   0.34897   0.34905
     Eigenvalues ---    0.35066   0.35799   0.36356   0.36419   0.36448
     Eigenvalues ---    0.43557   0.46215   0.49589   0.55659   0.56477
     Eigenvalues --- 1000.000001000.000001000.000001000.000001000.00000
     Eigenvalues --- 1000.000001000.000001000.000001000.000001000.00000
     Eigenvalues --- 1000.000001000.000001000.000001000.000001000.00000
     Eigenvalues --- 1000.000001000.000001000.000001000.000001000.00000
     Eigenvalues --- 1000.000001000.000001000.000001000.000001000.00000
     Eigenvalues --- 1000.000001000.000001000.000001000.000001000.00000
     Eigenvalues --- 1000.000001000.000001000.000001000.000001000.00000
     Eigenvalues --- 1000.000001000.000001000.000001000.000001000.00000
     Eigenvalues --- 1000.000001000.000001000.00000
 RFO step:  Lambda=-1.74452187D-03 EMin= 4.55045777D-03
 Linear search not attempted -- first point.
 Iteration  1 RMS(Cart)=  0.02956898 RMS(Int)=  0.00091520
 Iteration  2 RMS(Cart)=  0.00092109 RMS(Int)=  0.00024611
 Iteration  3 RMS(Cart)=  0.00000055 RMS(Int)=  0.00024611
 Iteration  1 RMS(Cart)=  0.00000368 RMS(Int)=  0.00000210
 Iteration  2 RMS(Cart)=  0.00000228 RMS(Int)=  0.00000233
 Iteration  3 RMS(Cart)=  0.00000142 RMS(Int)=  0.00000267
 Iteration  4 RMS(Cart)=  0.00000088 RMS(Int)=  0.00000293
 Variable       Old X    -DE/DX   Delta X   Delta X   Delta X     New X
                                 (Linear)    (Quad)   (Total)
    R1        2.57265   0.00007   0.00000   0.00013   0.00012   2.57278
    R2        2.61196  -0.00021   0.00000  -0.00040  -0.00043   2.61154
    R3        2.03406   0.00002   0.00000   0.00005   0.00005   2.03411
    R4        2.03443  -0.00005   0.00000  -0.00013  -0.00013   2.03430
    R5        2.61341  -0.00021   0.00000  -0.00047  -0.00044   2.61297
    R6        2.52504   0.00012   0.00000   0.00022   0.00021   2.52525
    R7        2.03539  -0.00004   0.00000  -0.00012  -0.00012   2.03527
    R8        2.52806  -0.00006   0.00000  -0.00011  -0.00009   2.52797
    R9        2.79951   0.00028   0.00000   0.00081   0.00081   2.80032
   R10        2.77700  -0.00002   0.00000  -0.00006  -0.00006   2.77694
   R11        2.87986   0.00040   0.00000   0.00131   0.00131   2.88118
   R12        2.06119  -0.00111   0.00000  -0.00318  -0.00318   2.05800
   R13        2.06013   0.00097   0.00000   0.00277   0.00277   2.06290
   R14        2.06234   0.00005   0.00000   0.00015   0.00015   2.06249
   R15        2.06361   0.00013   0.00000   0.00039   0.00039   2.06400
   R16        2.06360  -0.00055   0.00000  -0.00157  -0.00157   2.06203
   R17        2.05836  -0.00003   0.00000  -0.00009  -0.00009   2.05827
   R18        2.05857  -0.00005   0.00000  -0.00013  -0.00013   2.05844
   R19        2.05583  -0.00005   0.00000  -0.00015  -0.00015   2.05569
    A1        1.86943   0.00016   0.00000   0.00083   0.00069   1.87012
    A2        2.28197   0.00005   0.00000   0.00039   0.00043   2.28241
    A3        2.13178  -0.00021   0.00000  -0.00123  -0.00118   2.13060
    A4        2.28480   0.00005   0.00000   0.00034   0.00033   2.28514
    A5        1.86802  -0.00007   0.00000  -0.00024  -0.00036   1.86766
    A6        2.13023   0.00002   0.00000   0.00016   0.00015   2.13038
    A7        2.19287  -0.00003   0.00000  -0.00021  -0.00018   2.19269
    A8        1.89757   0.00007   0.00000   0.00045   0.00035   1.89792
    A9        2.19274  -0.00004   0.00000  -0.00024  -0.00022   2.19253
   A10        1.89501  -0.00016   0.00000  -0.00035  -0.00056   1.89444
   A11        2.19306  -0.00032   0.00000  -0.00122  -0.00124   2.19182
   A12        2.19494   0.00049   0.00000   0.00200   0.00198   2.19691
   A13        1.89445   0.00003   0.00000   0.00016   0.00011   1.89456
   A14        2.19134  -0.00002   0.00000  -0.00010  -0.00008   2.19126
   A15        2.19732   0.00000   0.00000  -0.00001   0.00001   2.19733
   A16        1.95096   0.00052   0.00000   0.00126   0.00032   1.95129
   A17        1.86119   0.00277   0.00000   0.00129   0.00026   1.86145
   A18        1.86370  -0.00277   0.00000  -0.00189  -0.00279   1.86091
   A19        2.02991  -0.00665   0.00000  -0.06059  -0.06041   1.96950
   A20        1.87041   0.00653   0.00000   0.06434   0.06456   1.93497
   A21        1.88017  -0.00033   0.00000  -0.00089   0.00008   1.88024
   A22        1.90462   0.00014   0.00000   0.00125   0.00120   1.90582
   A23        1.94701   0.00183   0.00000   0.01287   0.01287   1.95988
   A24        1.94124  -0.00203   0.00000  -0.01449  -0.01448   1.92676
   A25        1.88273  -0.00053   0.00000   0.00056   0.00050   1.88323
   A26        1.88931   0.00056   0.00000   0.00027   0.00024   1.88954
   A27        1.89717   0.00004   0.00000  -0.00036  -0.00031   1.89686
   A28        1.90862  -0.00001   0.00000  -0.00011  -0.00011   1.90851
   A29        1.90963   0.00001   0.00000   0.00009   0.00009   1.90972
   A30        1.90096   0.00000   0.00000  -0.00002  -0.00002   1.90094
   A31        1.92272   0.00000   0.00000  -0.00004  -0.00004   1.92268
   A32        1.91077  -0.00001   0.00000  -0.00019  -0.00019   1.91058
   A33        1.91098   0.00002   0.00000   0.00026   0.00026   1.91124
    D1       -3.13901   0.00026   0.00000   0.00791   0.00792  -3.13109
    D2       -0.01482   0.00073   0.00000   0.02549   0.02549   0.01067
    D3        0.00161  -0.00005   0.00000  -0.00298  -0.00298  -0.00138
    D4        3.12580   0.00041   0.00000   0.01460   0.01459   3.14039
    D5        0.02290  -0.00100   0.00000  -0.03448  -0.03447  -0.01157
    D6       -3.13840  -0.00006   0.00000  -0.01109  -0.01113   3.13366
    D7       -3.11782  -0.00072   0.00000  -0.02474  -0.02473   3.14064
    D8        0.00407   0.00022   0.00000  -0.00135  -0.00138   0.00268
    D9        0.00167  -0.00021   0.00000  -0.00780  -0.00779  -0.00612
   D10       -3.12711  -0.00030   0.00000  -0.01198  -0.01197  -3.13908
   D11        3.12775   0.00021   0.00000   0.00788   0.00788   3.13563
   D12       -0.00103   0.00011   0.00000   0.00370   0.00369   0.00266
   D13        3.11994   0.00061   0.00000   0.01944   0.01944   3.13939
   D14       -0.00191  -0.00032   0.00000  -0.00393  -0.00394  -0.00586
   D15       -0.02209   0.00088   0.00000   0.02993   0.02992   0.00783
   D16        3.13924  -0.00004   0.00000   0.00656   0.00653  -3.13741
   D17        0.01272  -0.00042   0.00000  -0.01382  -0.01382  -0.00109
   D18        3.14145  -0.00032   0.00000  -0.00962  -0.00962   3.13183
   D19       -3.12931  -0.00015   0.00000  -0.00333  -0.00334  -3.13265
   D20       -0.00058  -0.00005   0.00000   0.00087   0.00086   0.00028
   D21        1.43316  -0.00491   0.00000   0.00000   0.00000   1.43316
   D22       -0.80319   0.00120   0.00000   0.07578   0.07590  -0.72729
   D23       -2.80967   0.00157   0.00000   0.07708   0.07700  -2.73267
   D24       -1.73145  -0.00382   0.00000   0.02729   0.02728  -1.70417
   D25        2.31537   0.00228   0.00000   0.10307   0.10318   2.41856
   D26        0.30890   0.00266   0.00000   0.10437   0.10428   0.41318
   D27       -1.04718   0.00005   0.00000   0.00175   0.00175  -1.04542
   D28        1.06018   0.00004   0.00000   0.00169   0.00169   1.06187
   D29       -3.13466   0.00007   0.00000   0.00205   0.00205  -3.13261
   D30        2.10941  -0.00007   0.00000  -0.00314  -0.00314   2.10627
   D31       -2.06642  -0.00007   0.00000  -0.00320  -0.00320  -2.06962
   D32        0.02193  -0.00005   0.00000  -0.00284  -0.00284   0.01908
   D33        3.10315   0.00032   0.00000   0.02616   0.02612   3.12927
   D34       -1.10145   0.00088   0.00000   0.03559   0.03558  -1.06587
   D35        1.01997   0.00079   0.00000   0.03395   0.03389   1.05386
   D36       -1.03701  -0.00073   0.00000  -0.01911  -0.01856  -1.05557
   D37        1.04158  -0.00017   0.00000  -0.00967  -0.00909   1.03248
   D38       -3.12019  -0.00026   0.00000  -0.01131  -0.01078  -3.13097
   D39        1.06685  -0.00054   0.00000  -0.01100  -0.01152   1.05532
   D40       -3.13775   0.00002   0.00000  -0.00157  -0.00206  -3.13981
   D41       -1.01633  -0.00007   0.00000  -0.00321  -0.00374  -1.02008
         Item               Value     Threshold  Converged?
 Maximum Force            0.004468     0.000450     NO 
 RMS     Force            0.001103     0.000300     NO 
 Maximum Displacement     0.145720     0.001800     NO 
 RMS     Displacement     0.029545     0.001200     NO 
 Predicted change in Energy=-9.149117D-04
 GradGradGradGradGradGradGradGradGradGradGradGradGradGradGradGradGradGrad

                          Input orientation:                          
 ---------------------------------------------------------------------
 Center     Atomic      Atomic             Coordinates (Angstroms)
 Number     Number       Type             X           Y           Z
 ---------------------------------------------------------------------
      1          6           0       -0.135776    1.341410    0.141788
      2          6           0        1.205080    1.234592   -0.068578
      3          6           0        0.388019   -0.801976    0.182871
      4          7           0       -0.625964    0.059716    0.305505
      5          1           0       -0.771704    2.208075    0.197753
      6          1           0        1.955730    1.988876   -0.231184
      7          1           0        0.314144   -1.873428    0.263517
      8          7           0        1.512235   -0.113365   -0.044101
      9          6           0       -2.040498   -0.295485    0.567887
     10          6           0       -2.863101   -0.329720   -0.715359
     11          1           0       -2.414931    0.427708    1.290950
     12          1           0       -2.032244   -1.274528    1.050673
     13          1           0       -3.891092   -0.606899   -0.475349
     14          1           0       -2.885513    0.639137   -1.219107
     15          1           0       -2.460679   -1.073166   -1.405302
     16          6           0        2.852622   -0.687650   -0.225678
     17          1           0        3.237845   -0.402705   -1.203810
     18          1           0        3.513019   -0.321155    0.559237
     19          1           0        2.783049   -1.771555   -0.165121
 ---------------------------------------------------------------------
                    Distance matrix (angstroms):
                    1          2          3          4          5
     1  C    0.000000
     2  C    1.361455   0.000000
     3  C    2.206843   2.208716   0.000000
     4  N    1.381965   2.207486   1.336306   0.000000
     5  H    1.076403   2.219521   3.225769   2.155991   0.000000
     6  H    2.220973   1.076504   3.227696   3.267237   2.769645
     7  H    3.248451   3.250207   1.077019   2.150026   4.223986
     8  N    2.206098   1.382726   1.337746   2.173494   3.265571
     9  C    2.547342   3.644174   2.510471   1.481863   2.831016
    10  C    3.311446   4.406302   3.405822   2.489700   3.412934
    11  H    2.711083   3.950172   3.255225   2.075313   2.658004
    12  H    3.356456   4.246020   2.614204   2.076803   3.800653
    13  H    4.275414   5.433924   4.333832   3.422743   4.255318
    14  H    3.147423   4.290832   3.841661   2.786706   2.989522
    15  H    3.691726   4.533252   3.272754   2.752537   4.023551
    16  C    3.630791   2.536551   2.500850   3.597397   4.658353
    17  H    4.029131   2.846336   3.194340   4.173833   4.985683
[...]
     17          1           0        3.385578    0.354842   -0.986574
     18          1           0        3.245100   -1.097780    0.043469
     19          1           0        2.573325   -1.101805   -1.602537
 ---------------------------------------------------------------------
                    Distance matrix (angstroms):
                    1          2          3          4          5
     1  C    0.000000
     2  C    1.361927   0.000000
     3  C    2.206757   2.209207   0.000000
     4  N    1.381285   2.208147   1.337323   0.000000
     5  H    1.076298   2.220214   3.225298   2.154317   0.000000
     6  H    2.221573   1.076429   3.228118   3.267781   2.770935
     7  H    3.248766   3.250024   1.076896   2.152238   4.224107
     8  N    2.205061   1.382093   1.337513   2.173421   3.264581
     9  C    2.552357   3.648005   2.508686   1.483365   2.837027
    10  C    3.526143   4.500590   3.192718   2.494146   3.797552
    11  H    3.264917   4.214479   2.751566   2.086977   3.633748
    12  H    2.609840   3.909246   3.325985   2.068652   2.463214
    13  H    4.428803   5.503425   4.183534   3.425715   4.541935
    14  H    3.981949   4.694780   3.015562   2.793605   4.486405
    15  H    3.436858   4.392885   3.529077   2.759604   3.576657
    16  C    3.629872   2.535592   2.500256   3.597439   4.657601
    17  H    4.027269   2.849352   3.185524   4.165299   4.984089
    18  H    4.030902   2.847525   3.191597   4.172330   4.988377
    19  H    4.277405   3.395716   2.606316   3.898312   5.347454
                    6          7          8          9         10
     6  H    0.000000
     7  H    4.225200   0.000000
     8  N    2.156382   2.150056   0.000000
     9  C    4.676288   2.848349   3.609220   0.000000
    10  C    5.507729   3.275156   4.322822   1.523394   0.000000
    11  H    5.257944   2.799254   3.958427   1.090867   2.178958
    12  H    4.827158   3.840111   4.217423   1.089289   2.174886
    13  H    6.507216   4.168424   5.361982   2.145501   1.091345
    14  H    5.719234   2.779557   4.201696   2.176900   1.092062
    15  H    5.294093   3.815379   4.421549   2.171550   1.091562
    16  C    2.822006   2.841612   1.469591   4.971083   5.557620
    17  H    2.890705   3.570114   2.099656   5.559239   6.349414
    18  H    2.885224   3.579515   2.099246   5.561050   5.961642
    19  H    3.850244   2.504709   2.092756   5.093965   5.550422
                   11         12         13         14         15
    11  H    0.000000
    12  H    1.758994   0.000000
    13  H    2.511941   2.498512   0.000000
    14  H    2.530527   3.086555   1.763895   0.000000
    15  H    3.086108   2.530790   1.768602   1.774702   0.000000
    16  C    5.194328   5.656262   6.601553   5.230594   5.665857
    17  H    5.687671   6.143261   7.363825   6.102626   6.505986
    18  H    5.940130   6.214503   7.041173   5.625549   5.887436
    19  H    5.163499   5.926609   6.545771   5.034717   5.795939
                   16         17         18         19
    16  C    0.000000
    17  H    1.089241   0.000000
    18  H    1.089205   1.786290   0.000000
    19  H    1.087800   1.777916   1.777818   0.000000
 Stoichiometry    C6H11N2(1+)
 Framework group  C1[X(C6H11N2)]
 Deg. of freedom    51
 Full point group                 C1      NOp   1
 Largest Abelian subgroup         C1      NOp   1
 Largest concise Abelian subgroup C1      NOp   1
                         Standard orientation:                         
 ---------------------------------------------------------------------
 Center     Atomic      Atomic             Coordinates (Angstroms)
 Number     Number       Type             X           Y           Z
 ---------------------------------------------------------------------
      1          6           0        0.023012    1.443022   -0.062631
      2          6           0       -1.301435    1.179046   -0.238700
      3          6           0       -0.291371   -0.711591    0.295953
      4          7           0        0.636553    0.251075    0.270205
      5          1           0        0.573493    2.364348   -0.143541
      6          1           0       -2.121207    1.826000   -0.499706
      7          1           0       -0.116579   -1.748510    0.528230
      8          7           0       -1.476761   -0.172571   -0.009415
      9          6           0        2.084414    0.059450    0.529721
     10          6           0        2.773435   -0.697445   -0.598592
     11          1           0        2.177805   -0.460807    1.483975
     12          1           0        2.501865    1.057486    0.657034
     13          1           0        3.837627   -0.785545   -0.373276
     14          1           0        2.371575   -1.706748   -0.710028
     15          1           0        2.668026   -0.171322   -1.549166
     16          6           0       -2.756580   -0.891399   -0.080469
     17          1           0       -3.448172   -0.471123    0.648581
     18          1           0       -3.167481   -0.798382   -1.084897
     19          1           0       -2.584355   -1.941424    0.145572
 ---------------------------------------------------------------------
 Rotational constants (GHZ):      4.8360109      1.3159037      1.1189345

 **********************************************************************

            Population analysis using the SCF density.

 **********************************************************************

 Orbital symmetries:
       Occupied  (A) (A) (A) (A) (A) (A) (A) (A) (A) (A) (A) (A)
                 (A) (A) (A) (A) (A) (A) (A) (A) (A) (A) (A) (A)
                 (A) (A) (A) (A) (A) (A)
       Virtual   (A) (A) (A) (A) (A) (A) (A) (A) (A) (A) (A) (A)
                 (A) (A) (A) (A) (A) (A) (A) (A) (A) (A) (A) (A)
                 (A) (A) (A) (A) (A) (A) (A) (A) (A) (A) (A) (A)
                 (A) (A) (A) (A) (A) (A) (A) (A) (A) (A) (A) (A)
                 (A) (A) (A) (A) (A) (A) (A) (A) (A) (A) (A) (A)
                 (A) (A) (A) (A) (A) (A) (A) (A) (A) (A) (A) (A)
                 (A) (A) (A) (A) (A) (A) (A) (A) (A) (A) (A) (A)
                 (A) (A) (A) (A) (A) (A) (A) (A) (A) (A) (A) (A)
                 (A) (A) (A) (A) (A) (A) (A) (A) (A) (A) (A) (A)
                 (A) (A) (A) (A) (A) (A) (A) (A) (A) (A) (A) (A)
                 (A) (A) (A) (A) (A) (A) (A) (A) (A) (A) (A) (A)
                 (A) (A) (A) (A) (A) (A) (A) (A) (A) (A) (A) (A)
                 (A) (A) (A) (A) (A) (A) (A) (A) (A) (A) (A) (A)
                 (A) (A) (A) (A) (A) (A) (A) (A) (A) (A) (A) (A)
                 (A) (A) (A) (A) (A) (A) (A) (A) (A) (A) (A) (A)
                 (A) (A) (A) (A) (A) (A) (A) (A) (A) (A) (A) (A)
                 (A) (A) (A) (A) (A) (A) (A) (A) (A) (A) (A) (A)
                 (A) (A) (A) (A) (A) (A) (A) (A)
 The electronic state is 1-A.
 Alpha  occ. eigenvalues --  -14.57883 -14.57348 -10.44057 -10.39303 -10.39167
 Alpha  occ. eigenvalues --  -10.38330 -10.38154 -10.31388  -1.24498  -1.12655
 Alpha  occ. eigenvalues --   -0.97527  -0.94367  -0.89869  -0.82327  -0.80800
 Alpha  occ. eigenvalues --   -0.77908  -0.72200  -0.67182  -0.64986  -0.64810
 Alpha  occ. eigenvalues --   -0.63615  -0.62486  -0.61279  -0.59336  -0.57752
 Alpha  occ. eigenvalues --   -0.55184  -0.53265  -0.51527  -0.47630  -0.43701
 Alpha virt. eigenvalues --   -0.19430  -0.15818  -0.13386  -0.11649  -0.11041
 Alpha virt. eigenvalues --   -0.10049  -0.09476  -0.08749  -0.08426  -0.07753
 Alpha virt. eigenvalues --   -0.06649  -0.06402  -0.05345  -0.04524  -0.04329
 Alpha virt. eigenvalues --   -0.03481  -0.02947  -0.02196  -0.01634  -0.01449
 Alpha virt. eigenvalues --   -0.00120   0.00561   0.01772   0.02062   0.02602
 Alpha virt. eigenvalues --    0.03409   0.03975   0.04725   0.05067   0.05194
 Alpha virt. eigenvalues --    0.05344   0.06446   0.07194   0.07733   0.08107
 Alpha virt. eigenvalues --    0.08399   0.08792   0.09537   0.10255   0.11276
 Alpha virt. eigenvalues --    0.11976   0.12439   0.13920   0.14470   0.15106
 Alpha virt. eigenvalues --    0.15289   0.16987   0.18498   0.21438   0.22487
 Alpha virt. eigenvalues --    0.24807   0.25608   0.27111   0.27734   0.27929
 Alpha virt. eigenvalues --    0.30349   0.32600   0.35192   0.36582   0.37258
 Alpha virt. eigenvalues --    0.39013   0.40209   0.40559   0.41910   0.43328
 Alpha virt. eigenvalues --    0.44410   0.44930   0.46544   0.48504   0.48912
 Alpha virt. eigenvalues --    0.50753   0.51165   0.51459   0.52601   0.54326
 Alpha virt. eigenvalues --    0.55591   0.57071   0.57716   0.59173   0.60886
 Alpha virt. eigenvalues --    0.61786   0.64413   0.65618   0.68410   0.68752
 Alpha virt. eigenvalues --    0.72217   0.76659   0.76839   0.78809   0.80548
 Alpha virt. eigenvalues --    0.81936   0.85046   0.88669   0.88945   0.90486
 Alpha virt. eigenvalues --    0.91186   0.96669   0.98778   1.05187   1.09267
 Alpha virt. eigenvalues --    1.11990   1.14487   1.16198   1.22407   1.24933
 Alpha virt. eigenvalues --    1.27483   1.28154   1.30986   1.32263   1.35620
 Alpha virt. eigenvalues --    1.37433   1.37487   1.38835   1.40732   1.41359
 Alpha virt. eigenvalues --    1.43190   1.44194   1.45600   1.46184   1.47499
 Alpha virt. eigenvalues --    1.47946   1.50875   1.51834   1.53872   1.54936
 Alpha virt. eigenvalues --    1.56868   1.61378   1.62118   1.63716   1.65783
 Alpha virt. eigenvalues --    1.66237   1.69409   1.70098   1.74414   1.79806
 Alpha virt. eigenvalues --    1.83343   1.86566   1.89825   1.91292   1.94364
 Alpha virt. eigenvalues --    1.96125   1.97251   2.00766   2.01336   2.05362
 Alpha virt. eigenvalues --    2.09490   2.12693   2.14988   2.18973   2.22701
 Alpha virt. eigenvalues --    2.26071   2.27542   2.30176   2.32556   2.32975
 Alpha virt. eigenvalues --    2.34531   2.35621   2.37575   2.38646   2.39836
 Alpha virt. eigenvalues --    2.40238   2.42287   2.43513   2.46606   2.47076
 Alpha virt. eigenvalues --    2.48671   2.49915   2.50922   2.55446   2.56260
 Alpha virt. eigenvalues --    2.58196   2.61324   2.62385   2.64290   2.68874
 Alpha virt. eigenvalues --    2.70155   2.73739   2.77762   2.80782   2.81562
 Alpha virt. eigenvalues --    2.82618   2.94327   3.05437   3.11528   3.21910
 Alpha virt. eigenvalues --    3.39554   3.42172   3.47089   3.49738   3.57202
 Alpha virt. eigenvalues --    3.58180   3.63876   3.66351   3.66605   3.68478
 Alpha virt. eigenvalues --    3.73157   3.74874   3.75512   3.94051   4.06831
 Alpha virt. eigenvalues --    4.55208   4.74931   4.78518   5.09274  23.57652
 Alpha virt. eigenvalues --   23.69070  23.72733  23.74975  23.82203  24.00410
 Alpha virt. eigenvalues --   35.28181  35.43482
          Condensed to atoms (all electrons):
               1          2          3          4          5          6
     1  C    5.494841   0.066671  -0.092125   0.129140   0.457180  -0.070492
     2  C    0.066671   5.514014  -0.081401   0.149880  -0.050907   0.473997
     3  C   -0.092125  -0.081401   5.080203   0.375140   0.011369   0.010119
     4  N    0.129140   0.149880   0.375140   6.649159  -0.057845   0.026719
     5  H    0.457180  -0.050907   0.011369  -0.057845   0.449735  -0.002283
     6  H   -0.070492   0.473997   0.010119   0.026719  -0.002283   0.448471
     7  H    0.005157   0.008383   0.428841  -0.033620  -0.000055  -0.000017
     8  N    0.159816   0.112325   0.467783  -0.218190   0.023509  -0.065663
     9  C   -0.071466   0.003605  -0.048506   0.128778  -0.024127   0.001112
    10  C   -0.008419   0.007651  -0.025194  -0.064761   0.004827  -0.000106
    11  H    0.002265  -0.004721  -0.011016  -0.020417   0.000174   0.000011
    12  H   -0.005073   0.012306   0.010323  -0.064286   0.000989   0.000035
    13  H   -0.000933   0.002841   0.000453   0.016439  -0.000032   0.000000
    14  H    0.001625  -0.005421   0.012195  -0.031779  -0.000010   0.000005
    15  H    0.005183  -0.003171  -0.011232   0.008388   0.000117  -0.000003
    16  C    0.017695  -0.113089  -0.072891  -0.002075   0.000899  -0.008996
    17  H    0.001694  -0.008057  -0.014878  -0.002997   0.000005  -0.000590
    18  H    0.011124  -0.015092  -0.009954  -0.005500   0.000009  -0.000570
    19  H   -0.007021   0.011677   0.026176   0.012879   0.000013   0.000094
               7          8          9         10         11         12
     1  C    0.005157   0.159816  -0.071466  -0.008419   0.002265  -0.005073
     2  C    0.008383   0.112325   0.003605   0.007651  -0.004721   0.012306
     3  C    0.428841   0.467783  -0.048506  -0.025194  -0.011016   0.010323
     4  N   -0.033620  -0.218190   0.128778  -0.064761  -0.020417  -0.064286
     5  H   -0.000055   0.023509  -0.024127   0.004827   0.000174   0.000989
     6  H   -0.000017  -0.065663   0.001112  -0.000106   0.000011   0.000035
     7  H    0.442882  -0.037537   0.001053   0.000016  -0.000498   0.000265
     8  N   -0.037537   6.500036  -0.010962   0.001259   0.003255  -0.004665
     9  C    0.001053  -0.010962   5.320371   0.085593   0.437851   0.451361
    10  C    0.000016   0.001259   0.085593   5.246181  -0.050708  -0.050398
    11  H   -0.000498   0.003255   0.437851  -0.050708   0.477063  -0.028164
    12  H    0.000265  -0.004665   0.451361  -0.050398  -0.028164   0.503416
    13  H   -0.000095  -0.000508  -0.065300   0.431174  -0.003336  -0.002865
    14  H    0.001108   0.000591   0.015868   0.373797  -0.008975   0.006799
    15  H   -0.000047   0.000908  -0.027879   0.410333   0.005535  -0.006949
    16  C   -0.005567   0.223946  -0.004187   0.001606   0.000013  -0.000226
    17  H    0.000067  -0.024939  -0.001322  -0.000055  -0.000001  -0.000001
    18  H    0.000056  -0.027339   0.000021  -0.000111   0.000002  -0.000002
    19  H    0.001239  -0.048338   0.003243   0.000210   0.000002   0.000003
              13         14         15         16         17         18
     1  C   -0.000933   0.001625   0.005183   0.017695   0.001694   0.011124
     2  C    0.002841  -0.005421  -0.003171  -0.113089  -0.008057  -0.015092
     3  C    0.000453   0.012195  -0.011232  -0.072891  -0.014878  -0.009954
     4  N    0.016439  -0.031779   0.008388  -0.002075  -0.002997  -0.005500
     5  H   -0.000032  -0.000010   0.000117   0.000899   0.000005   0.000009
     6  H    0.000000   0.000005  -0.000003  -0.008996  -0.000590  -0.000570
     7  H   -0.000095   0.001108  -0.000047  -0.005567   0.000067   0.000056
     8  N   -0.000508   0.000591   0.000908   0.223946  -0.024939  -0.027339
     9  C   -0.065300   0.015868  -0.027879  -0.004187  -0.001322   0.000021
    10  C    0.431174   0.373797   0.410333   0.001606  -0.000055  -0.000111
    11  H   -0.003336  -0.008975   0.005535   0.000013  -0.000001   0.000002
    12  H   -0.002865   0.006799  -0.006949  -0.000226  -0.000001  -0.000002
    13  H    0.472443  -0.018976  -0.019847  -0.000037   0.000000   0.000000
    14  H   -0.018976   0.534142  -0.029003  -0.000107   0.000000   0.000003
    15  H   -0.019847  -0.029003   0.500333  -0.000071   0.000001  -0.000002
    16  C   -0.000037  -0.000107  -0.000071   4.952667   0.423304   0.416602
    17  H    0.000000   0.000000   0.000001   0.423304   0.463192  -0.028764
    18  H    0.000000   0.000003  -0.000002   0.416602  -0.028764   0.468586
    19  H    0.000000   0.000008  -0.000001   0.373571  -0.018667  -0.018576
              19
     1  C   -0.007021
     2  C    0.011677
     3  C    0.026176
     4  N    0.012879
     5  H    0.000013
     6  H    0.000094
     7  H    0.001239
     8  N   -0.048338
     9  C    0.003243
    10  C    0.000210
    11  H    0.000002
    12  H    0.000003
    13  H    0.000000
    14  H    0.000008
    15  H   -0.000001
    16  C    0.373571
    17  H   -0.018667
    18  H   -0.018576
    19  H    0.485725
 Mulliken charges:
               1
     1  C   -0.096861
     2  C   -0.081492
     3  C   -0.055405
     4  N    0.004949
     5  H    0.186433
     6  H    0.188158
     7  H    0.188368
     8  N   -0.055285
     9  C   -0.195110
    10  C   -0.362895
    11  H    0.201664
    12  H    0.177131
    13  H    0.188581
    14  H    0.148130
    15  H    0.167409
    16  C   -0.203058
    17  H    0.212009
    18  H    0.209509
    19  H    0.177762
 Sum of Mulliken charges =   1.00000
 Mulliken charges with hydrogens summed into heavy atoms:
               1
     1  C    0.089573
     2  C    0.106666
     3  C    0.132963
     4  N    0.004949
     8  N   -0.055285
     9  C    0.183686
    10  C    0.141226
    16  C    0.396222
 Electronic spatial extent (au):  <R**2>=           1097.5695
 Charge=              1.0000 electrons
 Dipole moment (field-independent basis, Debye):
    X=             -1.3444    Y=             -0.4254    Z=              0.3746  Tot=              1.4590
 Quadrupole moment (field-independent basis, Debye-Ang):
   XX=            -22.1373   YY=            -36.3689   ZZ=            -47.1364
   XY=              1.9109   XZ=              2.0483   YZ=             -1.7592
 Traceless Quadrupole moment (field-independent basis, Debye-Ang):
   XX=             13.0769   YY=             -1.1547   ZZ=            -11.9222
   XY=              1.9109   XZ=              2.0483   YZ=             -1.7592
 Octapole moment (field-independent basis, Debye-Ang**2):
  XXX=            -16.8084  YYY=              3.8555  ZZZ=              0.8882  XYY=             -5.5039
  XXY=             -6.2309  XXZ=             -1.4800  XZZ=              0.4165  YZZ=             -2.4730
  YYZ=             -0.2428  XYZ=              1.8604
 Hexadecapole moment (field-independent basis, Debye-Ang**3):
 XXXX=           -833.9372 YYYY=           -240.6528 ZZZZ=           -105.1144 XXXY=             10.4208
 XXXZ=              9.5107 YYYX=             10.8769 YYYZ=             -9.4687 ZZZX=              5.1232
 ZZZY=             -1.2225 XXYY=           -194.0606 XXZZ=           -180.2942 YYZZ=            -69.0203
 XXYZ=             -0.3637 YYXZ=              4.1148 ZZXY=              1.4161
 N-N= 3.806435122931D+02 E-N=-1.549824844441D+03  KE= 3.431001366166D+02
 1\1\GINC-CX1-27-18-2\Scan\RB3LYP\6-311+G(d,p)\C6H11N2(1+)\CJS14\27-Jan
 -2015\0\\# opt=modredundant b3lyp/6-311+g(d,p) geom=checkpoint scf=con
 ver=9 integral=grid=ultrafine EmpiricalDispersion=gd3bj\\EMIM PES scan
  of ethyl rotation\\1,1\C,-0.0299863155,1.0317769489,1.0369318281\C,1.
 3058349747,0.7988124235,0.9098348835\C,0.2681614699,-0.2499371611,-0.7
 345348215\N,-0.6606709788,0.3690449076,0.0020543088\H,-0.5779462967,1.
 6052744382,1.7644325368\H,2.1397391599,1.1318069638,1.5034831024\H,0.0
 818569392,-0.8447998245,-1.6126777456\N,1.4707017125,-0.0035189602,-0.
 2033875893\C,-2.1233425909,0.3249767425,-0.2408872831\C,-2.7161757534,
 -1.0415838626,0.0781603525\H,-2.2888547525,0.6064183428,-1.2817457762\
 H,-2.5556573608,1.1057495227,0.3836504485\H,-3.7943142477,-1.012114546
 8,-0.0885188109\H,-2.3005910197,-1.8203848134,-0.5647695828\H,-2.53901
 05208,-1.3155449078,1.1198250259\C,2.7564951657,-0.4933539012,-0.71961
 87141\H,3.3855775964,0.3548418478,-0.9865742607\H,3.2451003103,-1.0977
 795748,0.0434691694\H,2.573324508,-1.1018045853,-1.6025370714\\Version
 =ES64L-G09RevD.01\State=1-A\HF=-344.6646651,-344.6645842,-344.6643898,
 -344.664155,-344.6639364,-344.66377,-344.6636757,-344.6636655,-344.663
 728,-344.66382,-344.6638863,-344.6639025,-344.6638638,-344.6637813,-34
 4.663695,-344.6636593,-344.6637059,-344.6638329,-344.6640243\RMSD=1.96
 4e-10,3.385e-10,5.866e-10,4.700e-10,3.231e-10,4.729e-10,4.242e-10,9.98
 9e-10,5.717e-10,5.891e-10,5.791e-10,5.744e-10,7.258e-10,3.170e-10,4.81
 8e-10,5.674e-10,4.148e-10,8.951e-10,9.972e-10\PG=C01 [X(C6H11N2)]\\@


 IN THE WOODS WE RETURN TO REASON AND FAITH.

                                 -- EMERSON
 Job cpu time:       0 days  6 hours 47 minutes 19.2 seconds.
 File lengths (MBytes):  RWF=     30 Int=      0 D2E=      0 Chk=      7 Scr=      1
 Normal termination of Gaussian 09 at Tue Jan 27 19:56:05 2015.
