 Entering Gaussian System, Link 0=g09
 Input=/Users/cjs14/Dropbox/Mres_Project/gaussian/test_h20_pop.com
 Output=/Users/cjs14/Dropbox/Mres_Project/gaussian/test_h20_pop.log
 Initial command:
 /Applications/g09/l1.exe "/Users/cjs14/Work/Jobs/tmp/Gau-72928.inp" -scrdir="/Users/cjs14/Work/Jobs/tmp/"
 Entering Link 1 = /Applications/g09/l1.exe PID=     72929.
  
 Copyright (c) 1988,1990,1992,1993,1995,1998,2003,2009,2013,
            Gaussian, Inc.  All Rights Reserved.
  
 This is part of the Gaussian(R) 09 program.  It is based on
 the Gaussian(R) 03 system (copyright 2003, Gaussian, Inc.),
 the Gaussian(R) 98 system (copyright 1998, Gaussian, Inc.),
 the Gaussian(R) 94 system (copyright 1995, Gaussian, Inc.),
 the Gaussian 92(TM) system (copyright 1992, Gaussian, Inc.),
 the Gaussian 90(TM) system (copyright 1990, Gaussian, Inc.),
 the Gaussian 88(TM) system (copyright 1988, Gaussian, Inc.),
 the Gaussian 86(TM) system (copyright 1986, Carnegie Mellon
 University), and the Gaussian 82(TM) system (copyright 1983,
 Carnegie Mellon University). Gaussian is a federally registered
 trademark of Gaussian, Inc.
  
 This software contains proprietary and confidential information,
 including trade secrets, belonging to Gaussian, Inc.
  
 This software is provided under written license and may be
 used, copied, transmitted, or stored only in accord with that
 written license.
  
 The following legend is applicable only to US Government
 contracts under FAR:
  
                    RESTRICTED RIGHTS LEGEND
  
 Use, reproduction and disclosure by the US Government is
 subject to restrictions as set forth in subparagraphs (a)
 and (c) of the Commercial Computer Software - Restricted
 Rights clause in FAR 52.227-19.
  
 Gaussian, Inc.
 340 Quinnipiac St., Bldg. 40, Wallingford CT 06492
  
  
 ---------------------------------------------------------------
 Warning -- This program may not be used in any manner that
 competes with the business of Gaussian, Inc. or will provide
 assistance to any competitor of Gaussian, Inc.  The licensee
 of this program is prohibited from giving any competitor of
 Gaussian, Inc. access to this program.  By using this program,
 the user acknowledges that Gaussian, Inc. is engaged in the
 business of creating and licensing software in the field of
 computational chemistry and represents and warrants to the
 licensee that it is not a competitor of Gaussian, Inc. and that
 it will not use this program in any manner prohibited above.
 ---------------------------------------------------------------
  

 Cite this work as:
 Gaussian 09, Revision D.01,
 M. J. Frisch, G. W. Trucks, H. B. Schlegel, G. E. Scuseria, 
 M. A. Robb, J. R. Cheeseman, G. Scalmani, V. Barone, B. Mennucci, 
 G. A. Petersson, H. Nakatsuji, M. Caricato, X. Li, H. P. Hratchian, 
 A. F. Izmaylov, J. Bloino, G. Zheng, J. L. Sonnenberg, M. Hada, 
 M. Ehara, K. Toyota, R. Fukuda, J. Hasegawa, M. Ishida, T. Nakajima, 
 Y. Honda, O. Kitao, H. Nakai, T. Vreven, J. A. Montgomery, Jr., 
 J. E. Peralta, F. Ogliaro, M. Bearpark, J. J. Heyd, E. Brothers, 
 K. N. Kudin, V. N. Staroverov, T. Keith, R. Kobayashi, J. Normand, 
 K. Raghavachari, A. Rendell, J. C. Burant, S. S. Iyengar, J. Tomasi, 
 M. Cossi, N. Rega, J. M. Millam, M. Klene, J. E. Knox, J. B. Cross, 
 V. Bakken, C. Adamo, J. Jaramillo, R. Gomperts, R. E. Stratmann, 
 O. Yazyev, A. J. Austin, R. Cammi, C. Pomelli, J. W. Ochterski, 
 R. L. Martin, K. Morokuma, V. G. Zakrzewski, G. A. Voth, 
 P. Salvador, J. J. Dannenberg, S. Dapprich, A. D. Daniels, 
 O. Farkas, J. B. Foresman, J. V. Ortiz, J. Cioslowski, 
 and D. J. Fox, Gaussian, Inc., Wallingford CT, 2013.
 
 ******************************************
 Gaussian 09:  EM64M-G09RevD.01 24-Apr-2013
                21-May-2015 
 ******************************************
 %chk=test_h20_pop.chk
 ----------------------------------------------------------
 # opt b3lyp/3-21g pop=(nbo,full) geom=connectivity GFInput
 ----------------------------------------------------------
 1/14=-1,18=20,19=15,26=3,38=1,57=2/1,3;
 2/9=110,12=2,17=6,18=5,40=1/2;
 3/5=5,11=2,16=1,24=10,25=1,30=1,71=1,74=-5/1,2,3;
 4//1;
 5/5=2,38=5/2;
 6/7=3,28=1,40=1/1,7;
 7//1,2,3,16;
 1/14=-1,18=20,19=15,26=3/3(2);
 2/9=110/2;
 99//99;
 2/9=110/2;
 3/5=5,11=2,16=1,25=1,30=1,71=1,74=-5/1,2,3;
 4/5=5,16=3,69=1/1;
 5/5=2,38=5/2;
 7//1,2,3,16;
 1/14=-1,18=20,19=15,26=3/3(-5);
 2/9=110/2;
 6/7=3,19=2,28=1,40=1/1,7;
 99/9=1/99;
 --------
 test h20
 --------
 Symbolic Z-matrix:
 Charge =  0 Multiplicity = 1
 O                     2.07144   0.77992   0. 
 H                     1.1868    0.32065   0. 
 H                     2.74392   0.04528   0. 
 O                     0.       -1.204     0. 
 H                    -0.79711  -1.79385   0. 
 H                     0.7948   -1.79696   0. 
 O                    -2.07145   0.78109   0. 
 H                    -2.74244   0.04508   0. 
 H                    -1.18589   0.32372   0. 
 
 Add virtual bond connecting atoms O4         and H2         Dist= 3.65D+00.
 Add virtual bond connecting atoms H9         and O4         Dist= 3.65D+00.

 GradGradGradGradGradGradGradGradGradGradGradGradGradGradGradGradGradGrad
 Berny optimization.
 Initialization pass.
                           ----------------------------
                           !    Initial Parameters    !
                           ! (Angstroms and Degrees)  !
 --------------------------                            --------------------------
 ! Name  Definition              Value          Derivative Info.                !
 --------------------------------------------------------------------------------
 ! R1    R(1,2)                  0.9968         estimate D2E/DX2                !
 ! R2    R(1,3)                  0.996          estimate D2E/DX2                !
 ! R3    R(2,4)                  1.9321         estimate D2E/DX2                !
 ! R4    R(4,5)                  0.9916         estimate D2E/DX2                !
 ! R5    R(4,6)                  0.9916         estimate D2E/DX2                !
 ! R6    R(4,9)                  1.934          estimate D2E/DX2                !
 ! R7    R(7,8)                  0.996          estimate D2E/DX2                !
 ! R8    R(7,9)                  0.9967         estimate D2E/DX2                !
 ! A1    A(2,1,3)              105.0337         estimate D2E/DX2                !
 ! A2    A(1,2,4)              155.3344         estimate D2E/DX2                !
 ! A3    A(2,4,5)              164.3982         estimate D2E/DX2                !
 ! A4    A(2,4,6)               88.8271         estimate D2E/DX2                !
 ! A5    A(2,4,9)               75.7179         estimate D2E/DX2                !
 ! A6    A(5,4,6)              106.7748         estimate D2E/DX2                !
 ! A7    A(5,4,9)               88.6802         estimate D2E/DX2                !
 ! A8    A(6,4,9)              164.545          estimate D2E/DX2                !
 ! A9    A(8,7,9)              105.0389         estimate D2E/DX2                !
 ! A10   A(4,9,7)              155.1358         estimate D2E/DX2                !
 ! D1    D(3,1,2,4)              0.0            estimate D2E/DX2                !
 ! D2    D(1,2,4,5)            180.0            estimate D2E/DX2                !
 ! D3    D(1,2,4,6)              0.0            estimate D2E/DX2                !
 ! D4    D(1,2,4,9)            180.0            estimate D2E/DX2                !
 ! D5    D(2,4,9,7)            180.0            estimate D2E/DX2                !
 ! D6    D(5,4,9,7)              0.0            estimate D2E/DX2                !
 ! D7    D(6,4,9,7)            180.0            estimate D2E/DX2                !
 ! D8    D(8,7,9,4)              0.0            estimate D2E/DX2                !
 --------------------------------------------------------------------------------
 Trust Radius=3.00D-01 FncErr=1.00D-07 GrdErr=1.00D-06
 Number of steps in this run=     36 maximum allowed number of steps=    100.
 GradGradGradGradGradGradGradGradGradGradGradGradGradGradGradGradGradGrad

                          Input orientation:                          
 ---------------------------------------------------------------------
 Center     Atomic      Atomic             Coordinates (Angstroms)
 Number     Number       Type             X           Y           Z
 ---------------------------------------------------------------------
      1          8           0        2.071436    0.779922    0.000000
      2          1           0        1.186800    0.320647    0.000000
      3          1           0        2.743922    0.045277    0.000000
      4          8           0        0.000000   -1.204001    0.000000
      5          1           0       -0.797113   -1.793847    0.000000
      6          1           0        0.794803   -1.796960    0.000000
      7          8           0       -2.071446    0.781089    0.000000
      8          1           0       -2.742439    0.045079    0.000000
      9          1           0       -1.185894    0.323721    0.000000
 ---------------------------------------------------------------------
                    Distance matrix (angstroms):
                    1          2          3          4          5
     1  O    0.000000
     2  H    0.996752   0.000000
     3  H    0.995962   1.581283   0.000000
     4  O    2.868239   1.932109   3.014930   0.000000
     5  H    3.853941   2.899482   3.990151   0.991618   0.000000
     6  H    2.875780   2.153583   2.681958   0.991621   1.591919
     7  O    4.142883   3.290619   4.871262   2.869054   2.873016
     8  H    4.869640   3.938891   5.486361   3.013498   2.676928
     9  H    3.289121   2.372696   3.939668   1.933980   2.152962
                    6          7          8          9
     6  H    0.000000
     7  O    3.855091   0.000000
     8  H    3.988131   0.995964   0.000000
     9  H    2.901801   0.996689   1.581289   0.000000
 Stoichiometry    H6O3
 Framework group  CS[SG(H6O3)]
 Deg. of freedom    15
 Full point group                 CS      NOp   2
 Largest Abelian subgroup         CS      NOp   2
 Largest concise Abelian subgroup C1      NOp   1
                         Standard orientation:                         
 ---------------------------------------------------------------------
 Center     Atomic      Atomic             Coordinates (Angstroms)
 Number     Number       Type             X           Y           Z
 ---------------------------------------------------------------------
      1          8           0        2.071436   -0.779922    0.000000
      2          1           0        1.186800   -0.320647    0.000000
      3          1           0        2.743922   -0.045277    0.000000
      4          8           0        0.000000    1.204001    0.000000
      5          1           0       -0.797113    1.793847    0.000000
      6          1           0        0.794803    1.796960    0.000000
      7          8           0       -2.071446   -0.781089    0.000000
      8          1           0       -2.742439   -0.045079    0.000000
      9          1           0       -1.185894   -0.323721    0.000000
 ---------------------------------------------------------------------
 Rotational constants (GHZ):     10.2642777      3.2283120      2.4558881
 Standard basis: 3-21G (6D, 7F)
 AO basis set in the form of general basis input (Overlap normalization):
      1 0
 S   3 1.00       0.000000000000
      0.3220370000D+03  0.5923939339D-01
      0.4843080000D+02  0.3514999608D+00
      0.1042060000D+02  0.7076579210D+00
 SP   2 1.00       0.000000000000
      0.7402940000D+01 -0.4044535832D+00  0.2445861070D+00
      0.1576200000D+01  0.1221561761D+01  0.8539553735D+00
 SP   1 1.00       0.000000000000
      0.3736840000D+00  0.1000000000D+01  0.1000000000D+01
 ****
      2 0
 S   2 1.00       0.000000000000
      0.5447178000D+01  0.1562849787D+00
      0.8245472400D+00  0.9046908767D+00
 S   1 1.00       0.000000000000
      0.1831915800D+00  0.1000000000D+01
 ****
      3 0
 S   2 1.00       0.000000000000
      0.5447178000D+01  0.1562849787D+00
      0.8245472400D+00  0.9046908767D+00
 S   1 1.00       0.000000000000
      0.1831915800D+00  0.1000000000D+01
 ****
      4 0
 S   3 1.00       0.000000000000
      0.3220370000D+03  0.5923939339D-01
      0.4843080000D+02  0.3514999608D+00
      0.1042060000D+02  0.7076579210D+00
 SP   2 1.00       0.000000000000
      0.7402940000D+01 -0.4044535832D+00  0.2445861070D+00
      0.1576200000D+01  0.1221561761D+01  0.8539553735D+00
 SP   1 1.00       0.000000000000
      0.3736840000D+00  0.1000000000D+01  0.1000000000D+01
 ****
      5 0
 S   2 1.00       0.000000000000
      0.5447178000D+01  0.1562849787D+00
      0.8245472400D+00  0.9046908767D+00
 S   1 1.00       0.000000000000
      0.1831915800D+00  0.1000000000D+01
 ****
      6 0
 S   2 1.00       0.000000000000
      0.5447178000D+01  0.1562849787D+00
      0.8245472400D+00  0.9046908767D+00
 S   1 1.00       0.000000000000
      0.1831915800D+00  0.1000000000D+01
 ****
      7 0
 S   3 1.00       0.000000000000
      0.3220370000D+03  0.5923939339D-01
      0.4843080000D+02  0.3514999608D+00
      0.1042060000D+02  0.7076579210D+00
 SP   2 1.00       0.000000000000
      0.7402940000D+01 -0.4044535832D+00  0.2445861070D+00
      0.1576200000D+01  0.1221561761D+01  0.8539553735D+00
 SP   1 1.00       0.000000000000
      0.3736840000D+00  0.1000000000D+01  0.1000000000D+01
 ****
      8 0
 S   2 1.00       0.000000000000
      0.5447178000D+01  0.1562849787D+00
      0.8245472400D+00  0.9046908767D+00
 S   1 1.00       0.000000000000
      0.1831915800D+00  0.1000000000D+01
 ****
      9 0
 S   2 1.00       0.000000000000
      0.5447178000D+01  0.1562849787D+00
      0.8245472400D+00  0.9046908767D+00
 S   1 1.00       0.000000000000
      0.1831915800D+00  0.1000000000D+01
 ****

 There are    33 symmetry adapted cartesian basis functions of A'  symmetry.
 There are     6 symmetry adapted cartesian basis functions of A"  symmetry.
 There are    33 symmetry adapted basis functions of A'  symmetry.
 There are     6 symmetry adapted basis functions of A"  symmetry.
    39 basis functions,    63 primitive gaussians,    39 cartesian basis functions
    15 alpha electrons       15 beta electrons
       nuclear repulsion energy        77.0709166298 Hartrees.
 NAtoms=    9 NActive=    9 NUniq=    9 SFac= 1.00D+00 NAtFMM=   60 NAOKFM=F Big=F
 Integral buffers will be    131072 words long.
 Raffenetti 2 integral format.
 Two-electron integral symmetry is turned on.
 One-electron integrals computed using PRISM.
 NBasis=    39 RedAO= T EigKep=  1.12D-01  NBF=    33     6
 NBsUse=    39 1.00D-06 EigRej= -1.00D+00 NBFU=    33     6
 ExpMin= 1.83D-01 ExpMax= 3.22D+02 ExpMxC= 3.22D+02 IAcc=1 IRadAn=         1 AccDes= 0.00D+00
 Harris functional with IExCor=  402 and IRadAn=       1 diagonalized for initial guess.
 HarFok:  IExCor=  402 AccDes= 0.00D+00 IRadAn=         1 IDoV= 1 UseB2=F ITyADJ=14
 ICtDFT=  3500011 ScaDFX=  1.000000  1.000000  1.000000  1.000000
 FoFCou: FMM=F IPFlag=           0 FMFlag=      100000 FMFlg1=           0
         NFxFlg=           0 DoJE=T BraDBF=F KetDBF=T FulRan=T
         wScrn=  0.000000 ICntrl=     500 IOpCl=  0 I1Cent=   200000004 NGrid=           0
         NMat0=    1 NMatS0=      1 NMatT0=    0 NMatD0=    1 NMtDS0=    0 NMtDT0=    0
 Petite list used in FoFCou.
 Initial guess orbital symmetries:
       Occupied  (A') (A') (A') (A') (A') (A') (A') (A') (A') (A')
                 (A') (A') (A") (A") (A")
       Virtual   (A') (A') (A') (A') (A') (A') (A') (A') (A') (A')
                 (A') (A') (A") (A") (A") (A') (A') (A') (A') (A')
                 (A') (A') (A') (A')
 The electronic state of the initial guess is 1-A'.
 Keep R1 ints in memory in symmetry-blocked form, NReq=1191093.
 Requested convergence on RMS density matrix=1.00D-08 within 128 cycles.
 Requested convergence on MAX density matrix=1.00D-06.
 Requested convergence on             energy=1.00D-06.
 No special actions if energy rises.
 Integral accuracy reduced to 1.0D-05 until final iterations.
 Initial convergence to 1.0D-05 achieved.  Increase integral accuracy.
 SCF Done:  E(RB3LYP) =  -227.943491857     A.U. after   11 cycles
            NFock= 11  Conv=0.36D-08     -V/T= 2.0074

 **********************************************************************

            Population analysis using the SCF density.

 **********************************************************************

 Orbital symmetries:
       Occupied  (A') (A') (A') (A') (A') (A') (A') (A') (A') (A')
                 (A") (A') (A') (A") (A")
       Virtual   (A') (A') (A') (A') (A') (A') (A') (A') (A') (A')
                 (A') (A') (A") (A") (A") (A') (A') (A') (A') (A')
                 (A') (A') (A') (A')
 The electronic state is 1-A'.
 Alpha  occ. eigenvalues --  -19.08022 -18.98097 -18.98065  -1.04677  -0.95588
 Alpha  occ. eigenvalues --   -0.95566  -0.57333  -0.48968  -0.47035  -0.40662
 Alpha  occ. eigenvalues --   -0.33071  -0.30383  -0.30284  -0.23764  -0.23746
 Alpha virt. eigenvalues --    0.01855   0.10200   0.13762   0.13996   0.20666
 Alpha virt. eigenvalues --    0.29006   0.88624   0.89464   0.93723   0.97665
 Alpha virt. eigenvalues --    1.00923   1.11743   1.36499   1.45725   1.45959
 Alpha virt. eigenvalues --    1.52971   1.54757   1.54790   1.59117   1.76279
 Alpha virt. eigenvalues --    1.84118   2.65667   2.84451   2.93614
     Molecular Orbital Coefficients:
                           1         2         3         4         5
                           O         O         O         O         O
     Eigenvalues --   -19.08022 -18.98097 -18.98065  -1.04677  -0.95588
   1 1   O  1S          0.00144  -0.43473   0.88082  -0.01063   0.06952
   2        2S          0.00068  -0.04603   0.09218   0.01160  -0.06574
   3        2PX        -0.00036   0.00060  -0.00070  -0.00330   0.00517
   4        2PY         0.00008  -0.00161   0.00308   0.00605  -0.03414
   5        2PZ         0.00000   0.00000   0.00000   0.00000   0.00000
   6        3S         -0.00151   0.02059  -0.03831   0.02394  -0.21302
   7        3PX         0.00142  -0.00197   0.00185   0.00096   0.00779
   8        3PY        -0.00034   0.00345  -0.00626   0.00583  -0.03456
   9        3PZ         0.00000   0.00000   0.00000   0.00000   0.00000
  10 2   H  1S         -0.00036  -0.00036   0.00204   0.01341  -0.03689
  11        2S          0.00300  -0.00760   0.00860   0.01770  -0.00171
  12 3   H  1S          0.00033  -0.00137   0.00234   0.00431  -0.03702
  13        2S         -0.00131  -0.00230   0.00621   0.00245  -0.01219
  14 4   O  1S          0.98221  -0.00060  -0.00180  -0.22753   0.00883
  15        2S          0.10274   0.00015   0.00046   0.21842  -0.00901
  16        2PX         0.00000  -0.00090   0.00031  -0.00020  -0.00555
  17        2PY         0.00270  -0.00030  -0.00087   0.10227  -0.00704
  18        2PZ         0.00000   0.00000   0.00000   0.00000   0.00000
  19        3S         -0.04195  -0.00026  -0.00080   0.69041  -0.02861
  20        3PX         0.00001   0.00334  -0.00114  -0.00020  -0.01263
  21        3PY        -0.00515   0.00101   0.00298   0.10160  -0.01116
  22        3PZ         0.00000   0.00000   0.00000   0.00000   0.00000
  23 5   H  1S          0.00250   0.00145  -0.00060   0.11765  -0.00613
  24        2S          0.00673  -0.00163  -0.00076   0.02399   0.00908
  25 6   H  1S          0.00250  -0.00152   0.00040   0.11764  -0.00503
  26        2S          0.00672   0.00083  -0.00159   0.02399  -0.00581
  27 7   O  1S          0.00143   0.88086   0.43464  -0.01064  -0.21542
  28        2S          0.00067   0.09261   0.04516   0.01161   0.20473
  29        2PX         0.00036   0.00090   0.00019   0.00331   0.01687
  30        2PY         0.00008   0.00315   0.00147   0.00606   0.10582
  31        2PZ         0.00000   0.00000   0.00000   0.00000   0.00000
  32        3S         -0.00149  -0.03964  -0.01787   0.02398   0.65605
  33        3PX        -0.00141  -0.00270  -0.00027  -0.00094   0.02065
  34        3PY        -0.00033  -0.00654  -0.00287   0.00584   0.10581
  35        3PZ         0.00000   0.00000   0.00000   0.00000   0.00000
  36 8   H  1S          0.00033   0.00251   0.00103   0.00431   0.11531
  37        2S         -0.00131   0.00561   0.00353   0.00248   0.03379
  38 9   H  1S         -0.00036   0.00153   0.00140   0.01338   0.11195
  39        2S          0.00298   0.01125   0.00220   0.01766   0.01810
                           6         7         8         9        10
                           O         O         O         O         O
     Eigenvalues --    -0.95566  -0.57333  -0.48968  -0.47035  -0.40662
   1 1   O  1S         -0.21511   0.01155   0.00584   0.00649  -0.02619
   2        2S          0.20468  -0.01081  -0.00375  -0.00478   0.01746
   3        2PX        -0.01676  -0.02921  -0.25102   0.28365  -0.12364
   4        2PY         0.10571   0.00141  -0.03886   0.05483  -0.06316
   5        2PZ         0.00000   0.00000   0.00000   0.00000   0.00000
   6        3S          0.65421  -0.04662  -0.03161  -0.03271   0.14241
   7        3PX        -0.01956  -0.02521  -0.20470   0.24335  -0.12867
   8        3PY         0.10541   0.00523  -0.03276   0.04544  -0.05748
   9        3PZ         0.00000   0.00000   0.00000   0.00000   0.00000
  10 2   H  1S          0.11123   0.02824   0.15506  -0.15802   0.03291
  11        2S          0.02104   0.02560   0.16678  -0.13263  -0.04779
  12 3   H  1S          0.11528  -0.01927  -0.14661   0.16739  -0.08419
  13        2S          0.03286  -0.00324  -0.13740   0.15862  -0.08183
  14 4   O  1S          0.01714  -0.00001  -0.02295   0.00018   0.08375
  15        2S         -0.01751   0.00001   0.01786  -0.00015  -0.07249
  16        2PX         0.00289   0.40776   0.00046   0.05163  -0.00083
  17        2PY        -0.01369   0.00075  -0.16517   0.00127   0.39994
  18        2PZ         0.00000   0.00000   0.00000   0.00000   0.00000
  19        3S         -0.05549   0.00004   0.10019  -0.00079  -0.37783
  20        3PX         0.00655   0.35726   0.00042   0.03820  -0.00085
  21        3PY        -0.02169   0.00065  -0.16979   0.00129   0.42183
  22        3PZ         0.00000   0.00000   0.00000   0.00000   0.00000
  23 5   H  1S         -0.01056  -0.22297  -0.04813  -0.03503   0.11439
  24        2S         -0.00066  -0.18355  -0.04132  -0.03657   0.11222
  25 6   H  1S         -0.01114   0.22293  -0.04794   0.03570   0.11433
  26        2S          0.00695   0.18353  -0.04109   0.03714   0.11214
  27 7   O  1S         -0.06857  -0.01158   0.00578  -0.00660  -0.02606
  28        2S          0.06558   0.01084  -0.00370   0.00485   0.01736
  29        2PX         0.00562  -0.02923   0.25270   0.28243   0.12250
  30        2PY         0.03370  -0.00138  -0.03972  -0.05534  -0.06308
  31        2PZ         0.00000   0.00000   0.00000   0.00000   0.00000
  32        3S          0.20724   0.04677  -0.03134   0.03331   0.14178
  33        3PX         0.00510  -0.02523   0.20611   0.24244   0.12763
  34        3PY         0.03319  -0.00521  -0.03345  -0.04588  -0.05746
  35        3PZ         0.00000   0.00000   0.00000   0.00000   0.00000
  36 8   H  1S          0.03694   0.01927  -0.14765  -0.16677  -0.08354
  37        2S          0.00918   0.00320  -0.13838  -0.15802  -0.08120
  38 9   H  1S          0.03470  -0.02824   0.15600   0.15723   0.03254
  39        2S          0.01087  -0.02565   0.16756   0.13143  -0.04799
                          11        12        13        14        15
                           O         O         O         O         O
     Eigenvalues --    -0.33071  -0.30383  -0.30284  -0.23764  -0.23746
   1 1   O  1S          0.00000  -0.06519   0.07544   0.00000   0.00000
   2        2S          0.00000   0.05654  -0.06704   0.00000   0.00000
   3        2PX         0.00000   0.06133  -0.07902   0.00000   0.00000
   4        2PY         0.00000  -0.27587   0.32371   0.00000   0.00000
   5        2PZ         0.01066   0.00000   0.00000  -0.11195   0.51677
   6        3S          0.00000   0.29106  -0.32931   0.00000   0.00000
   7        3PX         0.00000   0.07076  -0.09747   0.00000   0.00000
   8        3PY         0.00000  -0.30267   0.35650   0.00000   0.00000
   9        3PZ         0.01625   0.00000   0.00000  -0.13234   0.61059
  10 2   H  1S          0.00000  -0.08769   0.10315   0.00000   0.00000
  11        2S          0.00000  -0.06956   0.05828   0.00000   0.00000
  12 3   H  1S          0.00000  -0.08069   0.09189   0.00000   0.00000
  13        2S          0.00000  -0.08809   0.10590   0.00000   0.00000
  14 4   O  1S          0.00000   0.00313   0.03473   0.00000   0.00000
  15        2S          0.00000  -0.00276  -0.03070   0.00000   0.00000
  16        2PX         0.00000   0.04474  -0.00414   0.00000   0.00000
  17        2PY         0.00000   0.00779   0.08690   0.00000   0.00000
  18        2PZ         0.53291   0.00000   0.00000  -0.01181  -0.01836
  19        3S          0.00000  -0.01669  -0.18432   0.00000   0.00000
  20        3PX         0.00000   0.02735  -0.00248   0.00000   0.00000
  21        3PY         0.00000   0.00547   0.06208   0.00000   0.00000
  22        3PZ         0.62042   0.00000   0.00000  -0.01038  -0.01612
  23 5   H  1S          0.00000  -0.03294   0.03281   0.00000   0.00000
  24        2S          0.00000   0.01378   0.08354   0.00000   0.00000
  25 6   H  1S          0.00000   0.03824   0.02640   0.00000   0.00000
  26        2S          0.00000   0.00156   0.08443   0.00000   0.00000
  27 7   O  1S          0.00000   0.07777   0.06243   0.00000   0.00000
  28        2S          0.00000  -0.06775  -0.05574   0.00000   0.00000
  29        2PX         0.00000   0.07517   0.06715   0.00000   0.00000
  30        2PY         0.00000   0.32969   0.26841   0.00000   0.00000
  31        2PZ         0.01065   0.00000   0.00000   0.51683   0.11172
  32        3S          0.00000  -0.34590  -0.27133   0.00000   0.00000
  33        3PX         0.00000   0.08780   0.08366   0.00000   0.00000
  34        3PY         0.00000   0.36191   0.29577   0.00000   0.00000
  35        3PZ         0.01623   0.00000   0.00000   0.61066   0.13193
  36 8   H  1S          0.00000   0.09602   0.07583   0.00000   0.00000
  37        2S          0.00000   0.10577   0.08826   0.00000   0.00000
  38 9   H  1S          0.00000   0.10485   0.08562   0.00000   0.00000
  39        2S          0.00000   0.07908   0.04469   0.00000   0.00000
                          16        17        18        19        20
                           V         V         V         V         V
     Eigenvalues --     0.01855   0.10200   0.13762   0.13996   0.20666
   1 1   O  1S         -0.02985   0.03916   0.06917   0.06050   0.02342
   2        2S          0.01717  -0.02335  -0.03763  -0.03330  -0.01719
   3        2PX        -0.03939  -0.07855  -0.06772  -0.02772   0.24875
   4        2PY         0.11449  -0.12504  -0.15590  -0.14020   0.00868
   5        2PZ         0.00000   0.00000   0.00000   0.00000   0.00000
   6        3S          0.25243  -0.33415  -0.60351  -0.52775  -0.18791
   7        3PX        -0.03864  -0.17108  -0.12967  -0.05306   0.47502
   8        3PY         0.16735  -0.21081  -0.30427  -0.25801   0.00175
   9        3PZ         0.00000   0.00000   0.00000   0.00000   0.00000
  10 2   H  1S         -0.02418   0.01077   0.04309   0.06512   0.08763
  11        2S         -0.18597  -0.00237   0.28054   0.30868   0.83263
  12 3   H  1S         -0.00808   0.03887   0.09405   0.06961  -0.02336
  13        2S         -0.23430   0.56445   0.73743   0.58177  -0.52760
  14 4   O  1S         -0.11152   0.00020  -0.03280   0.00059   0.02584
  15        2S          0.07082  -0.00014   0.00755  -0.00015  -0.04770
  16        2PX        -0.00050  -0.28185   0.00253   0.21002   0.00048
  17        2PY         0.17953  -0.00089   0.19521  -0.00291   0.20052
  18        2PZ         0.00000   0.00000   0.00000   0.00000   0.00000
  19        3S          0.89304  -0.00170   0.38011  -0.00683  -0.01380
  20        3PX        -0.00086  -0.52835   0.00586   0.46405   0.00077
  21        3PY         0.33376  -0.00163   0.29021  -0.00404   0.28024
  22        3PZ         0.00000   0.00000   0.00000   0.00000   0.00000
  23 5   H  1S         -0.10255  -0.05444  -0.04544   0.13434   0.01080
  24        2S         -0.67754  -0.75162  -0.40151   0.69944  -0.20848
  25 6   H  1S         -0.10254   0.05482  -0.04927  -0.13275   0.01071
  26        2S         -0.67716   0.75436  -0.42037  -0.68481  -0.21214
  27 7   O  1S         -0.02996  -0.03933   0.06710  -0.06272   0.02353
  28        2S          0.01723   0.02345  -0.03649   0.03450  -0.01727
  29        2PX         0.03939  -0.07898   0.06582  -0.02919  -0.24983
  30        2PY         0.11489   0.12576  -0.15100   0.14493   0.00902
  31        2PZ         0.00000   0.00000   0.00000   0.00000   0.00000
  32        3S          0.25333   0.33553  -0.58555   0.54715  -0.18889
  33        3PX         0.03859  -0.17199   0.12587  -0.05579  -0.47719
  34        3PY         0.16796   0.21215  -0.29535   0.26750   0.00263
  35        3PZ         0.00000   0.00000   0.00000   0.00000   0.00000
  36 8   H  1S         -0.00811  -0.03920   0.09169  -0.07272  -0.02370
  37        2S         -0.23561  -0.56752   0.71573  -0.60410  -0.52966
  38 9   H  1S         -0.02422  -0.01080   0.04122  -0.06657   0.08829
  39        2S         -0.18614   0.00322   0.27192  -0.31911   0.83629
                          21        22        23        24        25
                           V         V         V         V         V
     Eigenvalues --     0.29006   0.88624   0.89464   0.93723   0.97665
   1 1   O  1S          0.03767  -0.03412   0.01044   0.00735   0.01568
   2        2S         -0.03332   0.05931  -0.01390  -0.00984  -0.03438
   3        2PX         0.26948  -0.03927  -0.09498   0.11557  -0.08724
   4        2PY        -0.04097   0.08361  -0.02967   0.00444  -0.13682
   5        2PZ         0.00000   0.00000   0.00000   0.00000   0.00000
   6        3S         -0.30404   0.09562  -0.02897  -0.03079   0.02000
   7        3PX         0.50770  -0.03289  -0.09780   0.15652  -0.13591
   8        3PY        -0.04385   0.11602  -0.06994  -0.00210  -0.04497
   9        3PZ         0.00000   0.00000   0.00000   0.00000   0.00000
  10 2   H  1S          0.16182  -0.34010  -0.25667   0.61546  -0.33571
  11        2S          0.96587  -0.00109   0.28248  -0.45385   0.40865
  12 3   H  1S         -0.06955  -0.37169   0.52279  -0.45625   0.84325
  13        2S         -0.44462   0.17784  -0.36907   0.43646  -0.72468
  14 4   O  1S          0.00010   0.00000   0.05215   0.01757   0.00002
  15        2S         -0.00018   0.00005  -0.09500  -0.03125   0.00000
  16        2PX        -0.14002   0.25262   0.00026   0.00028   0.04872
  17        2PY         0.00074   0.00006  -0.21134  -0.15490   0.00006
  18        2PZ         0.00000   0.00000   0.00000   0.00000   0.00000
  19        3S         -0.00010  -0.00013  -0.01137   0.10099  -0.00002
  20        3PX        -0.16425   0.14585   0.00008   0.00060  -0.01148
  21        3PY         0.00108   0.00063  -0.08150  -0.19066   0.00010
  22        3PZ         0.00000   0.00000   0.00000   0.00000   0.00000
  23 5   H  1S          0.08957   0.77662   0.73197   0.55799   0.26458
  24        2S         -0.20832  -0.68796  -0.45342  -0.33092  -0.30806
  25 6   H  1S         -0.08970  -0.77661   0.73374   0.55644  -0.26393
  26        2S          0.20644   0.68802  -0.45529  -0.32920   0.30731
  27 7   O  1S         -0.03746   0.03421   0.01035   0.00747  -0.01554
  28        2S          0.03317  -0.05942  -0.01370  -0.01003   0.03418
  29        2PX         0.26852  -0.03889   0.09557  -0.11591  -0.08666
  30        2PY         0.04020  -0.08374  -0.02962   0.00466   0.13642
  31        2PZ         0.00000   0.00000   0.00000   0.00000   0.00000
  32        3S          0.30221  -0.09588  -0.02890  -0.03124  -0.02021
  33        3PX         0.50567  -0.03265   0.09808  -0.15672  -0.13576
  34        3PY         0.04237  -0.11650  -0.06997  -0.00222   0.04472
  35        3PZ         0.00000   0.00000   0.00000   0.00000   0.00000
  36 8   H  1S          0.06949   0.37493   0.52337  -0.45576  -0.84028
  37        2S          0.44329  -0.17971  -0.36973   0.43661   0.72292
  38 9   H  1S         -0.16111   0.33940  -0.25916   0.61693   0.33665
  39        2S         -0.96136   0.00210   0.28404  -0.45406  -0.40860
                          26        27        28        29        30
                           V         V         V         V         V
     Eigenvalues --     1.00923   1.11743   1.36499   1.45725   1.45959
   1 1   O  1S          0.03353  -0.00676   0.00000   0.00000   0.00000
   2        2S         -0.06139  -0.00930   0.00000   0.00000   0.00000
   3        2PX         0.03143   0.00080   0.00000   0.00000   0.00000
   4        2PY        -0.23253   0.15895   0.00000   0.00000   0.00000
   5        2PZ         0.00000   0.00000   0.11336  -0.69998   0.74070
   6        3S          0.05894  -0.15964   0.00000   0.00000   0.00000
   7        3PX         0.02758  -0.08414   0.00000   0.00000   0.00000
   8        3PY        -0.07425   0.00927   0.00000   0.00000   0.00000
   9        3PZ         0.00000   0.00000  -0.10217   0.66202  -0.70134
  10 2   H  1S          0.65522  -0.84821   0.00000   0.00000   0.00000
  11        2S         -0.42378   0.95105   0.00000   0.00000   0.00000
  12 3   H  1S          0.62870  -0.17244   0.00000   0.00000   0.00000
  13        2S         -0.41378   0.02197   0.00000   0.00000   0.00000
  14 4   O  1S         -0.01969   0.00006   0.00000   0.00000   0.00000
  15        2S          0.03546  -0.00009   0.00000   0.00000   0.00000
  16        2PX        -0.00059  -0.24326   0.00000   0.00000   0.00000
  17        2PY         0.01211  -0.00088   0.00000   0.00000   0.00000
  18        2PZ         0.00000   0.00000   1.01068  -0.00539  -0.15873
  19        3S         -0.00654  -0.00040   0.00000   0.00000   0.00000
  20        3PX         0.00037  -0.01848   0.00000   0.00000   0.00000
  21        3PY        -0.03737   0.00076   0.00000   0.00000   0.00000
  22        3PZ         0.00000   0.00000  -0.95975   0.00534   0.15742
  23 5   H  1S         -0.22807  -0.41755   0.00000   0.00000   0.00000
  24        2S          0.23175   0.54103   0.00000   0.00000   0.00000
  25 6   H  1S         -0.22607   0.41794   0.00000   0.00000   0.00000
  26        2S          0.22894  -0.54138   0.00000   0.00000   0.00000
  27 7   O  1S          0.03353   0.00675   0.00000   0.00000   0.00000
  28        2S         -0.06144   0.00932   0.00000   0.00000   0.00000
  29        2PX        -0.03196   0.00057   0.00000   0.00000   0.00000
  30        2PY        -0.23276  -0.15943   0.00000   0.00000   0.00000
  31        2PZ         0.00000   0.00000   0.11326   0.74929   0.69078
  32        3S          0.05916   0.15972   0.00000   0.00000   0.00000
  33        3PX        -0.02729  -0.08419   0.00000   0.00000   0.00000
  34        3PY        -0.07402  -0.00877   0.00000   0.00000   0.00000
  35        3PZ         0.00000   0.00000  -0.10208  -0.70873  -0.65414
  36 8   H  1S          0.63032   0.17335   0.00000   0.00000   0.00000
  37        2S         -0.41582  -0.02350   0.00000   0.00000   0.00000
  38 9   H  1S          0.65365   0.84728   0.00000   0.00000   0.00000
  39        2S         -0.42227  -0.94975   0.00000   0.00000   0.00000
                          31        32        33        34        35
                           V         V         V         V         V
     Eigenvalues --     1.52971   1.54757   1.54790   1.59117   1.76279
   1 1   O  1S          0.02908  -0.03705  -0.02491   0.00069   0.01191
   2        2S         -0.11571   0.11443   0.05206   0.01910  -0.09288
   3        2PX         0.31642  -0.02608   0.32282  -0.50589  -0.57049
   4        2PY         0.34388  -0.68082  -0.58404   0.11953  -0.15278
   5        2PZ         0.00000   0.00000   0.00000   0.00000   0.00000
   6        3S         -0.08130   0.10967   0.08174  -0.00833   0.01439
   7        3PX        -0.35316   0.03592  -0.38250   0.62317   0.86689
   8        3PY        -0.41945   0.80921   0.68449  -0.12478   0.21519
   9        3PZ         0.00000   0.00000   0.00000   0.00000   0.00000
  10 2   H  1S         -0.00750  -0.15773  -0.27922   0.17019   0.05175
  11        2S          0.12580  -0.06508   0.02099   0.04057   0.49641
  12 3   H  1S          0.14070  -0.25244  -0.17148  -0.01123  -0.17503
  13        2S          0.12592  -0.05645   0.03197  -0.15404  -0.29900
  14 4   O  1S         -0.03253   0.00031  -0.01583   0.00004  -0.00792
  15        2S          0.08915  -0.00092   0.05890  -0.00005  -0.05551
  16        2PX        -0.00161  -0.23175   0.00016  -0.71080  -0.00124
  17        2PY        -0.74247   0.00656  -0.31084  -0.00030  -0.59636
  18        2PZ         0.00000   0.00000   0.00000   0.00000   0.00000
  19        3S          0.13100  -0.00135   0.06851  -0.00019   0.19590
  20        3PX         0.00237   0.32223  -0.00007   1.00431   0.00211
  21        3PY         0.92934  -0.00812   0.36989   0.00059   0.89747
  22        3PZ         0.00000   0.00000   0.00000   0.00000   0.00000
  23 5   H  1S         -0.21436  -0.00827  -0.02328   0.21100  -0.18120
  24        2S         -0.09185   0.18596  -0.10467   0.22744  -0.15522
  25 6   H  1S         -0.21460   0.01167  -0.02384  -0.21012  -0.18299
  26        2S         -0.09577  -0.18346  -0.10439  -0.22752  -0.15678
  27 7   O  1S          0.02964   0.03666  -0.02474  -0.00075   0.01193
  28        2S         -0.11736  -0.11267   0.05154  -0.01888  -0.09321
  29        2PX        -0.31552  -0.01757  -0.32409  -0.50709   0.57157
  30        2PY         0.35584   0.67785  -0.57980  -0.11843  -0.15470
  31        2PZ         0.00000   0.00000   0.00000   0.00000   0.00000
  32        3S         -0.08318  -0.10868   0.08112   0.00840   0.01432
  33        3PX         0.35246   0.02616   0.38425   0.62507  -0.86850
  34        3PY        -0.43332  -0.80544   0.67967   0.12358   0.21820
  35        3PZ         0.00000   0.00000   0.00000   0.00000   0.00000
  36 8   H  1S          0.14438   0.25099  -0.17055   0.01137  -0.17590
  37        2S          0.12718   0.05377   0.03276   0.15437  -0.29977
  38 9   H  1S         -0.00560   0.15899  -0.27898  -0.17136   0.05031
  39        2S          0.12700   0.06315   0.02145  -0.04079   0.49925
                          36        37        38        39
                           V         V         V         V
     Eigenvalues --     1.84118   2.65667   2.84451   2.93614
   1 1   O  1S         -0.02462  -0.03451   0.05055   0.05448
   2        2S          0.19126   0.57309  -0.99008  -1.16421
   3        2PX         0.52947   0.03660   0.06776   0.10684
   4        2PY         0.09835   0.04613  -0.08277  -0.10531
   5        2PZ         0.00000   0.00000   0.00000   0.00000
   6        3S         -0.03550  -0.65531   1.22580   1.51863
   7        3PX        -0.84709  -0.06213  -0.16769  -0.26524
   8        3PY        -0.15709  -0.15119   0.27460   0.33818
   9        3PZ         0.00000   0.00000   0.00000   0.00000
  10 2   H  1S          0.08040   0.11841  -0.14594  -0.09095
  11        2S         -0.76076   0.00129  -0.38153  -0.69768
  12 3   H  1S          0.13084   0.07507  -0.15619  -0.18907
  13        2S          0.39216   0.20657  -0.14718  -0.12402
  14 4   O  1S          0.00000   0.07663   0.04430   0.00030
  15        2S          0.00037  -1.40090  -0.85120  -0.00627
  16        2PX        -0.65444   0.00037   0.00079  -0.18264
  17        2PY         0.00091  -0.15371   0.09827   0.00065
  18        2PZ         0.00000   0.00000   0.00000   0.00000
  19        3S         -0.00073   1.68037   0.99320   0.00756
  20        3PX         1.13656  -0.00103  -0.00204   0.44308
  21        3PY        -0.00142   0.44083  -0.12066  -0.00077
  22        3PZ         0.00000   0.00000   0.00000   0.00000
  23 5   H  1S          0.30108  -0.23503  -0.08983   0.16965
  24        2S          0.16838  -0.31650  -0.08619  -0.04616
  25 6   H  1S         -0.29985  -0.23505  -0.08816  -0.17089
  26        2S         -0.16690  -0.31616  -0.08667   0.04504
  27 7   O  1S          0.02447  -0.03440   0.05125  -0.05396
  28        2S         -0.19026   0.57138  -1.00388   1.15325
  29        2PX         0.52719  -0.03656  -0.06881   0.10603
  30        2PY        -0.09931   0.04600  -0.08388   0.10405
  31        2PZ         0.00000   0.00000   0.00000   0.00000
  32        3S          0.03540  -0.65351   1.24323  -1.50459
  33        3PX        -0.84331   0.06193   0.17043  -0.26338
  34        3PY         0.15866  -0.15076   0.27815  -0.33432
  35        3PZ         0.00000   0.00000   0.00000   0.00000
  36 8   H  1S         -0.13044   0.07460  -0.15841   0.18713
  37        2S         -0.39079   0.20661  -0.14915   0.12302
  38 9   H  1S         -0.08071   0.11809  -0.14698   0.08952
  39        2S          0.75781   0.00112  -0.38822   0.69191
     Density Matrix:
                           1         2         3         4         5
   1 1   O  1S          2.05378
   2        2S          0.08622   0.13023
   3        2PX        -0.00712   0.00521   0.33987
   4        2PY         0.04488  -0.02845  -0.02280   0.40358
   5        2PZ         0.00000   0.00000   0.00000   0.00000   0.55939
   6        3S         -0.49393   0.37101   0.02836  -0.24020   0.00000
   7        3PX        -0.00256   0.00785   0.29892  -0.04801   0.00000
   8        3PY         0.03227  -0.03798  -0.04126   0.43727   0.00000
   9        3PZ         0.00000   0.00000   0.00000   0.00000   0.66104
  10 2   H  1S         -0.02367   0.02824  -0.20853   0.10792   0.00000
  11        2S          0.03329  -0.00635  -0.16726   0.05957   0.00000
  12 3   H  1S         -0.02071   0.02825   0.16181   0.17132   0.00000
  13        2S          0.02918  -0.01097   0.15060   0.16342   0.00000
  14 4   O  1S         -0.00095   0.00042  -0.01387   0.01239   0.00000
  15        2S          0.00235   0.00044   0.01236  -0.01103   0.00000
  16        2PX         0.00299  -0.00168   0.01143  -0.01950   0.00000
  17        2PY        -0.00928   0.00197  -0.02837   0.01324   0.00000
  18        2PZ         0.00000   0.00000   0.00000   0.00000  -0.00497
  19        3S         -0.00077   0.00577   0.06679  -0.07169   0.00000
  20        3PX        -0.00463  -0.00088   0.00420  -0.00920   0.00000
  21        3PY        -0.00542   0.00367  -0.02758  -0.00536   0.00000
  22        3PZ         0.00000   0.00000   0.00000   0.00000  -0.00111
  23 5   H  1S         -0.00404   0.00036  -0.02068   0.02384   0.00000
  24        2S          0.00087  -0.00198  -0.02859   0.03052   0.00000
  25 6   H  1S          0.00168  -0.00098   0.00308  -0.01076   0.00000
  26        2S          0.00309  -0.00744  -0.01036   0.04956   0.00000
  27 7   O  1S         -0.00006  -0.00117   0.00073  -0.00047   0.00000
  28        2S         -0.00117   0.00017   0.00007  -0.00005   0.00000
  29        2PX        -0.00073  -0.00008   0.00334  -0.00215   0.00000
  30        2PY        -0.00046  -0.00005   0.00217  -0.00317   0.00000
  31        2PZ         0.00000   0.00000   0.00000   0.00000  -0.00002
  32        3S          0.00241   0.00061  -0.00305   0.00281   0.00000
  33        3PX         0.00202  -0.00060   0.00157  -0.00025   0.00000
  34        3PY         0.00028  -0.00005   0.00287  -0.00352   0.00000
  35        3PZ         0.00000   0.00000   0.00000   0.00000  -0.00002
  36 8   H  1S         -0.00047   0.00008  -0.00123  -0.00010   0.00000
  37        2S          0.00222  -0.00072  -0.00123   0.00214   0.00000
  38 9   H  1S          0.00224  -0.00064   0.00371  -0.00164   0.00000
  39        2S         -0.00642   0.00117   0.00615  -0.00607   0.00000
                           6         7         8         9        10
   6        3S          1.38703
   7        3PX         0.03902   0.26655
   8        3PY        -0.27521  -0.06697   0.47511
   9        3PZ         0.00000   0.00000   0.00000   0.78119
  10 2   H  1S          0.05002  -0.18769   0.12475   0.00000   0.16628
  11        2S         -0.06861  -0.14377   0.07104   0.00000   0.12148
  12 3   H  1S          0.03522   0.12973   0.17553   0.00000  -0.04339
  13        2S         -0.09799   0.12012   0.16933   0.00000  -0.05271
  14 4   O  1S          0.00916  -0.01658   0.01446   0.00000   0.00129
  15        2S         -0.01210   0.01812  -0.01367   0.00000  -0.00248
  16        2PX        -0.00682   0.01154  -0.02003   0.00000  -0.00085
  17        2PY         0.06153  -0.04993   0.02101   0.00000  -0.00849
  18        2PZ         0.00000   0.00000   0.00000  -0.00197   0.00000
  19        3S         -0.02942   0.09232  -0.08616   0.00000  -0.02033
  20        3PX        -0.00436   0.00451  -0.00876   0.00000   0.00525
  21        3PY         0.07411  -0.04891   0.00106   0.00000  -0.01467
  22        3PZ         0.00000   0.00000   0.00000   0.00322   0.00000
  23 5   H  1S          0.01244  -0.02606   0.02741   0.00000   0.00488
  24        2S          0.00347  -0.03461   0.03529   0.00000   0.01040
  25 6   H  1S          0.01044  -0.00280  -0.00940   0.00000  -0.00625
  26        2S         -0.02686  -0.01976   0.05651   0.00000   0.01301
  27 7   O  1S          0.00240  -0.00201   0.00028   0.00000   0.00224
  28        2S          0.00062   0.00059  -0.00005   0.00000  -0.00063
  29        2PX         0.00304   0.00155  -0.00284   0.00000  -0.00372
  30        2PY         0.00275   0.00030  -0.00352   0.00000  -0.00165
  31        2PZ         0.00000   0.00000   0.00000  -0.00002   0.00000
  32        3S          0.00570  -0.00361   0.00378   0.00000  -0.00529
  33        3PX         0.00357  -0.00171  -0.00029   0.00000  -0.00428
  34        3PY         0.00370   0.00035  -0.00388   0.00000  -0.00268
  35        3PZ         0.00000   0.00000   0.00000   0.00002   0.00000
  36 8   H  1S          0.00005  -0.00103   0.00014   0.00000   0.00114
  37        2S         -0.00320  -0.00160   0.00260   0.00000   0.00115
  38 9   H  1S         -0.00530   0.00427  -0.00267   0.00000  -0.00167
  39        2S         -0.00622   0.01135  -0.00850   0.00000   0.00273
                          11        12        13        14        15
  11        2S          0.11496
  12 3   H  1S         -0.05911   0.17323
  13        2S         -0.05401   0.14951   0.14201
  14 4   O  1S         -0.01358   0.00055  -0.00334   2.05129
  15        2S          0.01738   0.00030   0.00076   0.08656   0.13035
  16        2PX         0.00086  -0.00533   0.00532  -0.00007   0.00005
  17        2PY        -0.08150  -0.00556  -0.00287   0.03883  -0.02342
  18        2PZ         0.00000   0.00000   0.00000   0.00000   0.00000
  19        3S          0.07252  -0.00197  -0.00152  -0.47978   0.36520
  20        3PX         0.00453  -0.00340   0.00519  -0.00005   0.00004
  21        3PY        -0.08806  -0.01360  -0.01039   0.02549  -0.02677
  22        3PZ         0.00000   0.00000   0.00000   0.00000   0.00000
  23 5   H  1S         -0.01698   0.00209  -0.00240  -0.02567   0.03226
  24        2S         -0.01554   0.00057  -0.00232   0.02902  -0.01122
  25 6   H  1S         -0.02346  -0.00433   0.00317  -0.02566   0.03226
  26        2S         -0.01409   0.01602   0.02182   0.02899  -0.01121
  27 7   O  1S         -0.00640  -0.00048   0.00221  -0.00094   0.00233
  28        2S          0.00115   0.00008  -0.00072   0.00040   0.00044
  29        2PX        -0.00617   0.00124   0.00125   0.01385  -0.01234
  30        2PY        -0.00594  -0.00009   0.00213   0.01236  -0.01098
  31        2PZ         0.00000   0.00000   0.00000   0.00000   0.00000
  32        3S         -0.00634   0.00006  -0.00315   0.00914  -0.01206
  33        3PX        -0.01137   0.00106   0.00164   0.01657  -0.01809
  34        3PY        -0.00834   0.00015   0.00259   0.01442  -0.01360
  35        3PZ         0.00000   0.00000   0.00000   0.00000   0.00000
  36 8   H  1S          0.00073  -0.00075   0.00000   0.00058   0.00028
  37        2S         -0.00042   0.00001   0.00104  -0.00333   0.00076
  38 9   H  1S          0.00272   0.00114   0.00116   0.00131  -0.00249
  39        2S          0.01942   0.00069  -0.00047  -0.01359   0.01735
                          16        17        18        19        20
  16        2PX         0.34199
  17        2PY        -0.00013   0.41111
  18        2PZ         0.00000   0.00000   0.56894
  19        3S          0.00043  -0.22470   0.00000   1.33874
  20        3PX         0.29794  -0.00023   0.00000   0.00041   0.26013
  21        3PY        -0.00026   0.42588   0.00000  -0.23209  -0.00035
  22        3PZ         0.00000   0.00000   0.66209   0.00000   0.00000
  23 5   H  1S         -0.18895   0.13661   0.00000   0.05673  -0.16421
  24        2S         -0.15326   0.12262   0.00000  -0.09218  -0.13409
  25 6   H  1S          0.18841   0.13735   0.00000   0.05671   0.16367
  26        2S          0.15282   0.12318   0.00000  -0.09207   0.13365
  27 7   O  1S         -0.00295  -0.00926   0.00000  -0.00079   0.00466
  28        2S          0.00167   0.00196   0.00000   0.00581   0.00086
  29        2PX         0.01136   0.02831   0.00000  -0.06670   0.00413
  30        2PY         0.01952   0.01313   0.00000  -0.07160   0.00934
  31        2PZ         0.00000   0.00000  -0.00495   0.00000   0.00000
  32        3S          0.00657   0.06141   0.00000  -0.02914   0.00403
  33        3PX         0.01140   0.04987   0.00000  -0.09223   0.00437
  34        3PY         0.02004   0.02081   0.00000  -0.08596   0.00889
  35        3PZ         0.00000   0.00000  -0.00197   0.00000   0.00000
  36 8   H  1S          0.00539  -0.00552   0.00000  -0.00212   0.00350
  37        2S         -0.00530  -0.00288   0.00000  -0.00160  -0.00512
  38 9   H  1S          0.00091  -0.00843   0.00000  -0.02040  -0.00515
  39        2S         -0.00057  -0.08138   0.00000   0.07240  -0.00421
                          21        22        23        24        25
  21        3PY         0.44322
  22        3PZ         0.00000   0.77059
  23 5   H  1S          0.14066   0.00000   0.16501
  24        2S          0.12352   0.00000   0.12422   0.11441
  25 6   H  1S          0.14129   0.00000  -0.04394  -0.04376   0.16500
  26        2S          0.12402   0.00000  -0.04379  -0.02625   0.12422
  27 7   O  1S         -0.00541   0.00000   0.00170   0.00314  -0.00403
  28        2S          0.00366   0.00000  -0.00099  -0.00748   0.00035
  29        2PX         0.02744   0.00000  -0.00314   0.01044   0.02069
  30        2PY        -0.00552   0.00000  -0.01080   0.04976   0.02381
  31        2PZ         0.00000  -0.00111   0.00000   0.00000   0.00000
  32        3S          0.07400   0.00000   0.01037  -0.02713   0.01240
  33        3PX         0.04876   0.00000   0.00273   0.01986   0.02607
  34        3PY         0.00080   0.00000  -0.00946   0.05670   0.02735
  35        3PZ         0.00000   0.00321   0.00000   0.00000   0.00000
  36 8   H  1S         -0.01357   0.00000  -0.00433   0.01613   0.00212
  37        2S         -0.01040   0.00000   0.00319   0.02193  -0.00238
  38 9   H  1S         -0.01465   0.00000  -0.00624   0.01309   0.00490
  39        2S         -0.08795   0.00000  -0.02341  -0.01401  -0.01697
                          26        27        28        29        30
  26        2S          0.11433
  27 7   O  1S          0.00087   2.05378
  28        2S         -0.00198   0.08621   0.13024
  29        2PX         0.02857   0.00722  -0.00527   0.33994
  30        2PY         0.03039   0.04487  -0.02845   0.02290   0.40348
  31        2PZ         0.00000   0.00000   0.00000   0.00000   0.00000
  32        3S          0.00350  -0.49391   0.37102  -0.02892  -0.24015
  33        3PX         0.03460   0.00265  -0.00793   0.29903   0.04825
  34        3PY         0.03512   0.03227  -0.03797   0.04150   0.43706
  35        3PZ         0.00000   0.00000   0.00000   0.00000   0.00000
  36 8   H  1S          0.00057  -0.02071   0.02825  -0.16145   0.17166
  37        2S         -0.00233   0.02919  -0.01098  -0.15025   0.16368
  38 9   H  1S          0.01039  -0.02367   0.02825   0.20880   0.10749
  39        2S         -0.01555   0.03326  -0.00635   0.16743   0.05925
                          31        32        33        34        35
  31        2PZ         0.55942
  32        3S          0.00000   1.38694
  33        3PX         0.00000  -0.03968   0.26671
  34        3PY         0.00000  -0.27512   0.06734   0.47478
  35        3PZ         0.66104   0.00000   0.00000   0.00000   0.78115
  36 8   H  1S          0.00000   0.03526  -0.12936   0.17581   0.00000
  37        2S          0.00000  -0.09795  -0.11975   0.16952   0.00000
  38 9   H  1S          0.00000   0.05003   0.18796   0.12436   0.00000
  39        2S          0.00000  -0.06858   0.14396   0.07078   0.00000
                          36        37        38        39
  36 8   H  1S          0.17324
  37        2S          0.14948   0.14196
  38 9   H  1S         -0.04340  -0.05274   0.16632
  39        2S         -0.05913  -0.05402   0.12149   0.11492
    Full Mulliken population analysis:
                           1         2         3         4         5
   1 1   O  1S          2.05378
   2        2S          0.01804   0.13023
   3        2PX         0.00000   0.00000   0.33987
   4        2PY         0.00000   0.00000   0.00000   0.40358
   5        2PZ         0.00000   0.00000   0.00000   0.00000   0.55939
   6        3S         -0.09043   0.27455   0.00000   0.00000   0.00000
   7        3PX         0.00000   0.00000   0.14909   0.00000   0.00000
   8        3PY         0.00000   0.00000   0.00000   0.21810   0.00000
   9        3PZ         0.00000   0.00000   0.00000   0.00000   0.32970
  10 2   H  1S         -0.00044   0.00394   0.03381   0.00908   0.00000
  11        2S          0.00193  -0.00184   0.01746   0.00323   0.00000
  12 3   H  1S         -0.00038   0.00395   0.02000   0.02314   0.00000
  13        2S          0.00169  -0.00318   0.01196   0.01418   0.00000
  14 4   O  1S          0.00000   0.00000   0.00000   0.00000   0.00000
  15        2S          0.00000   0.00000   0.00000   0.00000   0.00000
  16        2PX         0.00000   0.00000   0.00000   0.00000   0.00000
  17        2PY         0.00000   0.00000   0.00000   0.00000   0.00000
  18        2PZ         0.00000   0.00000   0.00000   0.00000   0.00000
  19        3S          0.00000   0.00000  -0.00001  -0.00001   0.00000
  20        3PX         0.00000   0.00000   0.00000  -0.00001   0.00000
  21        3PY         0.00000   0.00000  -0.00002   0.00000   0.00000
  22        3PZ         0.00000   0.00000   0.00000   0.00000   0.00000
  23 5   H  1S          0.00000   0.00000   0.00000   0.00000   0.00000
  24        2S          0.00000   0.00000   0.00000   0.00000   0.00000
  25 6   H  1S          0.00000   0.00000   0.00000   0.00000   0.00000
  26        2S          0.00000  -0.00003   0.00002   0.00021   0.00000
  27 7   O  1S          0.00000   0.00000   0.00000   0.00000   0.00000
  28        2S          0.00000   0.00000   0.00000   0.00000   0.00000
  29        2PX         0.00000   0.00000   0.00000   0.00000   0.00000
  30        2PY         0.00000   0.00000   0.00000   0.00000   0.00000
  31        2PZ         0.00000   0.00000   0.00000   0.00000   0.00000
  32        3S          0.00000   0.00000   0.00000   0.00000   0.00000
  33        3PX         0.00000   0.00000   0.00000   0.00000   0.00000
  34        3PY         0.00000   0.00000   0.00000   0.00000   0.00000
  35        3PZ         0.00000   0.00000   0.00000   0.00000   0.00000
  36 8   H  1S          0.00000   0.00000   0.00000   0.00000   0.00000
  37        2S          0.00000   0.00000   0.00000   0.00000   0.00000
  38 9   H  1S          0.00000   0.00000   0.00000   0.00000   0.00000
  39        2S          0.00000   0.00000  -0.00001   0.00000   0.00000
                           6         7         8         9        10
   6        3S          1.38703
   7        3PX         0.00000   0.26655
   8        3PY         0.00000   0.00000   0.47511
   9        3PZ         0.00000   0.00000   0.00000   0.78119
  10 2   H  1S          0.01698   0.09110   0.03143   0.00000   0.16628
  11        2S         -0.04041   0.05693   0.01460   0.00000   0.07846
  12 3   H  1S          0.01198   0.04794   0.07085   0.00000  -0.00091
  13        2S         -0.05775   0.03618   0.05572   0.00000  -0.00883
  14 4   O  1S          0.00000   0.00000   0.00000   0.00000   0.00000
  15        2S          0.00000  -0.00001  -0.00001   0.00000   0.00000
  16        2PX         0.00000  -0.00001  -0.00001   0.00000   0.00000
  17        2PY        -0.00001  -0.00003  -0.00001   0.00000   0.00001
  18        2PZ         0.00000   0.00000   0.00000   0.00000   0.00000
  19        3S         -0.00012  -0.00091  -0.00082   0.00000  -0.00054
  20        3PX        -0.00004  -0.00009  -0.00020   0.00000   0.00027
  21        3PY        -0.00070  -0.00111  -0.00002   0.00000   0.00096
  22        3PZ         0.00000   0.00000   0.00000   0.00001   0.00000
  23 5   H  1S          0.00000   0.00000   0.00000   0.00000   0.00000
  24        2S          0.00000   0.00010   0.00009   0.00000   0.00007
  25 6   H  1S          0.00000   0.00000  -0.00002   0.00000  -0.00001
  26        2S         -0.00065   0.00046   0.00267   0.00000   0.00069
  27 7   O  1S          0.00000   0.00000   0.00000   0.00000   0.00000
  28        2S          0.00000   0.00000   0.00000   0.00000   0.00000
  29        2PX         0.00000   0.00000   0.00000   0.00000   0.00000
  30        2PY         0.00000   0.00000   0.00000   0.00000   0.00000
  31        2PZ         0.00000   0.00000   0.00000   0.00000   0.00000
  32        3S          0.00000   0.00000   0.00000   0.00000   0.00000
  33        3PX         0.00000   0.00000   0.00000   0.00000   0.00000
  34        3PY         0.00000   0.00000   0.00000   0.00000   0.00000
  35        3PZ         0.00000   0.00000   0.00000   0.00000   0.00000
  36 8   H  1S          0.00000   0.00000   0.00000   0.00000   0.00000
  37        2S          0.00000   0.00000   0.00000   0.00000   0.00000
  38 9   H  1S          0.00000   0.00000   0.00000   0.00000   0.00000
  39        2S         -0.00005  -0.00022  -0.00002   0.00000   0.00008
                          11        12        13        14        15
  11        2S          0.11496
  12 3   H  1S         -0.00990   0.17323
  13        2S         -0.02384   0.09657   0.14201
  14 4   O  1S         -0.00013   0.00000   0.00000   2.05129
  15        2S          0.00103   0.00000   0.00000   0.01811   0.13035
  16        2PX         0.00002   0.00000   0.00001   0.00000   0.00000
  17        2PY         0.00293   0.00000   0.00000   0.00000   0.00000
  18        2PZ         0.00000   0.00000   0.00000   0.00000   0.00000
  19        3S          0.01283   0.00000  -0.00003  -0.08784   0.27025
  20        3PX         0.00072   0.00000   0.00018   0.00000   0.00000
  21        3PY         0.01805   0.00001   0.00017   0.00000   0.00000
  22        3PZ         0.00000   0.00000   0.00000   0.00000   0.00000
  23 5   H  1S         -0.00012   0.00000   0.00000  -0.00049   0.00459
  24        2S         -0.00099   0.00000  -0.00001   0.00169  -0.00327
  25 6   H  1S         -0.00124   0.00000   0.00004  -0.00049   0.00459
  26        2S         -0.00309   0.00021   0.00207   0.00169  -0.00326
  27 7   O  1S          0.00000   0.00000   0.00000   0.00000   0.00000
  28        2S          0.00000   0.00000   0.00000   0.00000   0.00000
  29        2PX        -0.00001   0.00000   0.00000   0.00000   0.00000
  30        2PY         0.00000   0.00000   0.00000   0.00000   0.00000
  31        2PZ         0.00000   0.00000   0.00000   0.00000   0.00000
  32        3S         -0.00005   0.00000   0.00000   0.00000   0.00000
  33        3PX        -0.00022   0.00000   0.00000   0.00000  -0.00001
  34        3PY        -0.00002   0.00000   0.00000   0.00000  -0.00001
  35        3PZ         0.00000   0.00000   0.00000   0.00000   0.00000
  36 8   H  1S          0.00000   0.00000   0.00000   0.00000   0.00000
  37        2S          0.00000   0.00000   0.00000   0.00000   0.00000
  38 9   H  1S          0.00008   0.00000   0.00000   0.00000   0.00000
  39        2S          0.00308   0.00000   0.00000  -0.00013   0.00102
                          16        17        18        19        20
  16        2PX         0.34199
  17        2PY         0.00000   0.41111
  18        2PZ         0.00000   0.00000   0.56894
  19        3S          0.00000   0.00000   0.00000   1.33874
  20        3PX         0.14860   0.00000   0.00000   0.00000   0.26013
  21        3PY         0.00000   0.21242   0.00000   0.00000   0.00000
  22        3PZ         0.00000   0.00000   0.33023   0.00000   0.00000
  23 5   H  1S          0.02818   0.01508   0.00000   0.01944   0.07251
  24        2S          0.01450   0.00859   0.00000  -0.05453   0.04806
  25 6   H  1S          0.02802   0.01524   0.00000   0.01944   0.07206
  26        2S          0.01442   0.00867   0.00000  -0.05447   0.04776
  27 7   O  1S          0.00000   0.00000   0.00000   0.00000   0.00000
  28        2S          0.00000   0.00000   0.00000   0.00000   0.00000
  29        2PX         0.00000   0.00000   0.00000  -0.00001   0.00000
  30        2PY         0.00000   0.00000   0.00000  -0.00001  -0.00001
  31        2PZ         0.00000   0.00000   0.00000   0.00000   0.00000
  32        3S          0.00000  -0.00001   0.00000  -0.00012  -0.00004
  33        3PX        -0.00001  -0.00003   0.00000  -0.00091  -0.00009
  34        3PY        -0.00001  -0.00001   0.00000  -0.00081  -0.00020
  35        3PZ         0.00000   0.00000   0.00000   0.00000   0.00000
  36 8   H  1S          0.00000   0.00000   0.00000   0.00000   0.00000
  37        2S          0.00001   0.00000   0.00000  -0.00003   0.00018
  38 9   H  1S          0.00000   0.00001   0.00000  -0.00054   0.00026
  39        2S          0.00002   0.00291   0.00000   0.01277   0.00067
                          21        22        23        24        25
  21        3PY         0.44322
  22        3PZ         0.00000   0.77059
  23 5   H  1S          0.04596   0.00000   0.16501
  24        2S          0.03276   0.00000   0.08023   0.11441
  25 6   H  1S          0.04641   0.00000  -0.00087  -0.00720   0.16500
  26        2S          0.03306   0.00000  -0.00720  -0.01146   0.08023
  27 7   O  1S          0.00000   0.00000   0.00000   0.00000   0.00000
  28        2S          0.00000   0.00000   0.00000  -0.00003   0.00000
  29        2PX        -0.00002   0.00000   0.00000   0.00002   0.00000
  30        2PY         0.00000   0.00000   0.00000   0.00021   0.00000
  31        2PZ         0.00000   0.00000   0.00000   0.00000   0.00000
  32        3S         -0.00070   0.00000   0.00000  -0.00066   0.00000
  33        3PX        -0.00110   0.00000   0.00000   0.00047   0.00000
  34        3PY        -0.00001   0.00000  -0.00002   0.00270   0.00000
  35        3PZ         0.00000   0.00001   0.00000   0.00000   0.00000
  36 8   H  1S          0.00001   0.00000   0.00000   0.00022   0.00000
  37        2S          0.00017   0.00000   0.00004   0.00210   0.00000
  38 9   H  1S          0.00095   0.00000  -0.00001   0.00069   0.00000
  39        2S          0.01801   0.00000  -0.00124  -0.00308  -0.00012
                          26        27        28        29        30
  26        2S          0.11433
  27 7   O  1S          0.00000   2.05378
  28        2S          0.00000   0.01804   0.13024
  29        2PX         0.00000   0.00000   0.00000   0.33994
  30        2PY         0.00000   0.00000   0.00000   0.00000   0.40348
  31        2PZ         0.00000   0.00000   0.00000   0.00000   0.00000
  32        3S          0.00000  -0.09043   0.27456   0.00000   0.00000
  33        3PX         0.00010   0.00000   0.00000   0.14915   0.00000
  34        3PY         0.00009   0.00000   0.00000   0.00000   0.21799
  35        3PZ         0.00000   0.00000   0.00000   0.00000   0.00000
  36 8   H  1S          0.00000  -0.00038   0.00395   0.01992   0.02323
  37        2S         -0.00001   0.00169  -0.00318   0.01191   0.01423
  38 9   H  1S          0.00007  -0.00044   0.00394   0.03389   0.00901
  39        2S         -0.00099   0.00193  -0.00184   0.01750   0.00320
                          31        32        33        34        35
  31        2PZ         0.55942
  32        3S          0.00000   1.38694
  33        3PX         0.00000   0.00000   0.26671
  34        3PY         0.00000   0.00000   0.00000   0.47478
  35        3PZ         0.32971   0.00000   0.00000   0.00000   0.78115
  36 8   H  1S          0.00000   0.01199   0.04769   0.07110   0.00000
  37        2S          0.00000  -0.05772   0.03599   0.05588   0.00000
  38 9   H  1S          0.00000   0.01699   0.09133   0.03121   0.00000
  39        2S          0.00000  -0.04039   0.05707   0.01449   0.00000
                          36        37        38        39
  36 8   H  1S          0.17324
  37        2S          0.09655   0.14196
  38 9   H  1S         -0.00091  -0.00883   0.16632
  39        2S         -0.00991  -0.02384   0.07847   0.11492
     Gross orbital populations:
                           1
   1 1   O  1S          1.98418
   2        2S          0.42567
   3        2PX         0.57218
   4        2PY         0.67150
   5        2PZ         0.88909
   6        3S          1.50039
   7        3PX         0.64598
   8        3PY         0.86748
   9        3PZ         1.11090
  10 2   H  1S          0.42244
  11        2S          0.24445
  12 3   H  1S          0.43669
  13        2S          0.26715
  14 4   O  1S          1.98370
  15        2S          0.42338
  16        2PX         0.57574
  17        2PY         0.67687
  18        2PZ         0.89917
  19        3S          1.47176
  20        3PX         0.65072
  21        3PY         0.84846
  22        3PZ         1.10084
  23 5   H  1S          0.42110
  24        2S          0.22570
  25 6   H  1S          0.42109
  26        2S          0.22562
  27 7   O  1S          1.98418
  28        2S          0.42569
  29        2PX         0.57229
  30        2PY         0.67134
  31        2PZ         0.88913
  32        3S          1.50037
  33        3PX         0.64615
  34        3PY         0.86715
  35        3PZ         1.11087
  36 8   H  1S          0.43669
  37        2S          0.26710
  38 9   H  1S          0.42251
  39        2S          0.24429
          Condensed to atoms (all electrons):
               1          2          3          4          5          6
     1  O    8.194821   0.237812   0.236286  -0.004123   0.000204   0.002678
     2  H    0.237812   0.438162  -0.043477   0.036133  -0.001040  -0.003650
     3  H    0.236286  -0.043477   0.508374   0.000344  -0.000013   0.002332
     4  O   -0.004123   0.036133   0.000344   8.099899   0.233064   0.233136
     5  H    0.000204  -0.001040  -0.000013   0.233064   0.439882  -0.026733
     6  H    0.002678  -0.003650   0.002332   0.233136  -0.026733   0.439790
     7  O    0.000001  -0.000303   0.000000  -0.004095   0.002700   0.000203
     8  H    0.000000  -0.000002   0.000000   0.000342   0.002367  -0.000013
     9  H   -0.000303   0.003248  -0.000003   0.035939  -0.003628  -0.001036
               7          8          9
     1  O    0.000001   0.000000  -0.000303
     2  H   -0.000303  -0.000002   0.003248
     3  H    0.000000   0.000000  -0.000003
     4  O   -0.004095   0.000342   0.035939
     5  H    0.002700   0.002367  -0.003628
     6  H    0.000203  -0.000013  -0.001036
     7  O    8.194467   0.236292   0.237891
     8  H    0.236292   0.508299  -0.043490
     9  H    0.237891  -0.043490   0.438181
 Mulliken charges:
               1
     1  O   -0.667376
     2  H    0.333117
     3  H    0.296157
     4  O   -0.630639
     5  H    0.353198
     6  H    0.353294
     7  O   -0.667156
     8  H    0.296206
     9  H    0.333200
 Sum of Mulliken charges =   0.00000
 Mulliken charges with hydrogens summed into heavy atoms:
               1
     1  O   -0.038102
     4  O    0.075852
     7  O   -0.037750
 Electronic spatial extent (au):  <R**2>=            454.5520
 Charge=              0.0000 electrons
 Dipole moment (field-independent basis, Debye):
    X=             -0.0022    Y=              7.1131    Z=              0.0000  Tot=              7.1131
 Quadrupole moment (field-independent basis, Debye-Ang):
   XX=            -17.9484   YY=            -16.7218   ZZ=            -20.5619
   XY=             -0.0042   XZ=              0.0000   YZ=              0.0000
 Traceless Quadrupole moment (field-independent basis, Debye-Ang):
   XX=              0.4623   YY=              1.6889   ZZ=             -2.1512
   XY=             -0.0042   XZ=              0.0000   YZ=              0.0000
 Octapole moment (field-independent basis, Debye-Ang**2):
  XXX=              0.0434  YYY=             21.8436  ZZZ=              0.0000  XYY=              0.0126
  XXY=             27.2344  XXZ=              0.0000  XZZ=             -0.0006  YZZ=              0.8121
  YYZ=              0.0000  XYZ=              0.0000
 Hexadecapole moment (field-independent basis, Debye-Ang**3):
 XXXX=           -289.3198 YYYY=            -90.3095 ZZZZ=            -12.7615 XXXY=             -0.0881
 XXXZ=              0.0000 YYYX=             -0.0315 YYYZ=              0.0000 ZZZX=              0.0000
 ZZZY=              0.0000 XXYY=            -92.5129 XXZZ=            -64.4310 YYZZ=            -22.8853
 XXYZ=              0.0000 YYXZ=              0.0000 ZZXY=             -0.0139
 N-N= 7.707091662977D+01 E-N=-6.933537373522D+02  KE= 2.262699639966D+02
 Symmetry A'   KE= 2.120383612103D+02
 Symmetry A"   KE= 1.423160278634D+01
 Orbital energies and kinetic energies (alpha):
                                 1                 2
   1         O               -19.080217         28.828302
   2         O               -18.980972         28.828829
   3         O               -18.980654         28.829061
   4         O                -1.046768          2.592929
   5         O                -0.955884          2.580990
   6         O                -0.955660          2.580557
   7         O                -0.573332          1.691550
   8         O                -0.489680          1.592406
   9         O                -0.470347          1.707364
  10         O                -0.406622          2.206493
  11         O                -0.330706          2.384685
  12         O                -0.303828          2.285155
  13         O                -0.302840          2.295545
  14         O                -0.237644          2.365325
  15         O                -0.237463          2.365791
  16         V                 0.018550          1.473306
  17         V                 0.102000          1.470737
  18         V                 0.137623          1.608731
  19         V                 0.139957          1.533963
  20         V                 0.206664          1.773196
  21         V                 0.290064          1.986289
  22         V                 0.886238          2.729667
  23         V                 0.894639          2.690797
  24         V                 0.937234          2.514159
  25         V                 0.976654          2.497528
  26         V                 1.009228          2.917168
  27         V                 1.117426          2.735156
  28         V                 1.364992          4.970158
  29         V                 1.457252          4.991388
  30         V                 1.459585          4.991677
  31         V                 1.529711          4.997282
  32         V                 1.547569          4.909322
  33         V                 1.547903          4.854090
  34         V                 1.591169          4.953637
  35         V                 1.762792          5.045178
  36         V                 1.841177          5.076074
  37         V                 2.656675          6.398373
  38         V                 2.844508          6.488566
  39         V                 2.936144          6.508338
 Total kinetic energy from orbitals= 2.262699639966D+02
 ******************************Gaussian NBO Version 3.1******************************
             N A T U R A L   A T O M I C   O R B I T A L   A N D
          N A T U R A L   B O N D   O R B I T A L   A N A L Y S I S
 ******************************Gaussian NBO Version 3.1******************************
       /RESON  / : Allow strongly delocalized NBO set

 Analyzing the SCF density

 Job title: test h20                                                        

 Storage needed:      4854 in NPA,      6291 in NBO (  33553937 available)


 NATURAL POPULATIONS:  Natural atomic orbital occupancies 
                                                          
   NAO  Atom  No  lang   Type(AO)    Occupancy      Energy
 ----------------------------------------------------------
     1    O    1  S      Cor( 1S)     1.99982     -18.78181
     2    O    1  S      Val( 2S)     1.78347      -0.89417
     3    O    1  S      Ryd( 3S)     0.00096       2.82703
     4    O    1  px     Val( 2p)     1.41491      -0.21692
     5    O    1  px     Ryd( 3p)     0.00103       1.68211
     6    O    1  py     Val( 2p)     1.63536      -0.23627
     7    O    1  py     Ryd( 3p)     0.00028       1.53499
     8    O    1  pz     Val( 2p)     1.99980      -0.23736
     9    O    1  pz     Ryd( 3p)     0.00019       1.45719

    10    H    2  S      Val( 1S)     0.57362       0.07386
    11    H    2  S      Ryd( 2S)     0.00257       0.92013

    12    H    3  S      Val( 1S)     0.60916       0.03222
    13    H    3  S      Ryd( 2S)     0.00134       0.80523

    14    O    4  S      Cor( 1S)     1.99982     -18.90350
    15    O    4  S      Val( 2S)     1.76724      -0.97245
    16    O    4  S      Ryd( 3S)     0.00085       2.68480
    17    O    4  px     Val( 2p)     1.42469      -0.31925
    18    O    4  px     Ryd( 3p)     0.00076       1.67385
    19    O    4  py     Val( 2p)     1.65514      -0.32971
    20    O    4  py     Ryd( 3p)     0.00040       1.59815
    21    O    4  pz     Val( 2p)     1.99992      -0.33053
    22    O    4  pz     Ryd( 3p)     0.00009       1.36721

    23    H    5  S      Val( 1S)     0.55017      -0.00897
    24    H    5  S      Ryd( 2S)     0.00302       0.76140

    25    H    6  S      Val( 1S)     0.55013      -0.00892
    26    H    6  S      Ryd( 2S)     0.00301       0.76127

    27    O    7  S      Cor( 1S)     1.99982     -18.78204
    28    O    7  S      Val( 2S)     1.78349      -0.89432
    29    O    7  S      Ryd( 3S)     0.00096       2.82642
    30    O    7  px     Val( 2p)     1.41511      -0.21711
    31    O    7  px     Ryd( 3p)     0.00103       1.68172
    32    O    7  py     Val( 2p)     1.63496      -0.23641
    33    O    7  py     Ryd( 3p)     0.00028       1.53492
    34    O    7  pz     Val( 2p)     1.99980      -0.23752
    35    O    7  pz     Ryd( 3p)     0.00019       1.45703

    36    H    8  S      Val( 1S)     0.60914       0.03206
    37    H    8  S      Ryd( 2S)     0.00134       0.80510

    38    H    9  S      Val( 1S)     0.57358       0.07374
    39    H    9  S      Ryd( 2S)     0.00257       0.91997


 Summary of Natural Population Analysis:                  
                                                          
                                       Natural Population 
                Natural  -----------------------------------------------
    Atom  No    Charge         Core      Valence    Rydberg      Total
 -----------------------------------------------------------------------
      O    1   -0.83582      1.99982     6.83353    0.00247     8.83582
      H    2    0.42381      0.00000     0.57362    0.00257     0.57619
      H    3    0.38950      0.00000     0.60916    0.00134     0.61050
      O    4   -0.84889      1.99982     6.84699    0.00209     8.84889
      H    5    0.44681      0.00000     0.55017    0.00302     0.55319
      H    6    0.44687      0.00000     0.55013    0.00301     0.55313
      O    7   -0.83565      1.99982     6.83336    0.00247     8.83565
      H    8    0.38952      0.00000     0.60914    0.00134     0.61048
      H    9    0.42386      0.00000     0.57358    0.00257     0.57614
 =======================================================================
   * Total *    0.00000      5.99947    23.97967    0.02086    30.00000

                                 Natural Population      
 --------------------------------------------------------
   Core                       5.99947 ( 99.9911% of   6)
   Valence                   23.97967 ( 99.9153% of  24)
   Natural Minimal Basis     29.97914 ( 99.9305% of  30)
   Natural Rydberg Basis      0.02086 (  0.0695% of  30)
 --------------------------------------------------------

    Atom  No          Natural Electron Configuration
 ----------------------------------------------------------------------------
      O    1      [core]2S( 1.78)2p( 5.05)
      H    2            1S( 0.57)
      H    3            1S( 0.61)
      O    4      [core]2S( 1.77)2p( 5.08)
      H    5            1S( 0.55)
      H    6            1S( 0.55)
      O    7      [core]2S( 1.78)2p( 5.05)
      H    8            1S( 0.61)
      H    9            1S( 0.57)


 NATURAL BOND ORBITAL ANALYSIS:

                       Occupancies       Lewis Structure    Low   High
           Occ.    -------------------  -----------------   occ   occ
  Cycle   Thresh.   Lewis   Non-Lewis     CR  BD  3C  LP    (L)   (NL)   Dev
 =============================================================================
   1(1)    1.90    29.91022   0.08978      3   6   0   6     0      0    0.05
 -----------------------------------------------------------------------------

 Structure accepted: No low occupancy Lewis orbitals

 --------------------------------------------------------
   Core                      5.99947 ( 99.991% of   6)
   Valence Lewis            23.91076 ( 99.628% of  24)
  ==================       ============================
   Total Lewis              29.91022 ( 99.701% of  30)
  -----------------------------------------------------
   Valence non-Lewis         0.07474 (  0.249% of  30)
   Rydberg non-Lewis         0.01503 (  0.050% of  30)
  ==================       ============================
   Total non-Lewis           0.08978 (  0.299% of  30)
 --------------------------------------------------------


       (Occupancy)   Bond orbital/ Coefficients/ Hybrids
 ---------------------------------------------------------------------------------
     1. (1.99579) BD ( 1) O   1 - H   2  
                ( 72.32%)   0.8504* O   1 s( 21.36%)p 3.68( 78.64%)
                                            0.0000 -0.4621 -0.0119  0.7811  0.0142
                                           -0.4195  0.0114  0.0000  0.0000
                ( 27.68%)   0.5261* H   2 s(100.00%)
                                           -0.9999 -0.0111
     2. (1.99844) BD ( 1) O   1 - H   3  
                ( 69.54%)   0.8339* O   1 s( 17.35%)p 4.76( 82.65%)
                                            0.0000  0.4162  0.0163  0.6086  0.0225
                                            0.6750 -0.0025  0.0000  0.0000
                ( 30.46%)   0.5519* H   3 s(100.00%)
                                            1.0000  0.0010
     3. (1.99449) BD ( 1) O   4 - H   5  
                ( 72.69%)   0.8526* O   4 s( 19.28%)p 4.19( 80.72%)
                                            0.0000 -0.4388 -0.0137  0.7080  0.0141
[...]
  11. LP (   2) O   1                / 21. RY*(   1) H   3                    0.62    1.41    0.026

 from unit  1 to unit  2
   1. BD (   1) O   1 - H   2        / 23. RY*(   2) O   4                    0.05    2.35    0.010
   1. BD (   1) O   1 - H   2        / 27. RY*(   1) H   6                    0.07    1.43    0.009
   1. BD (   1) O   1 - H   2        / 36. BD*(   1) O   4 - H   5            0.52    0.95    0.020
   1. BD (   1) O   1 - H   2        / 37. BD*(   1) O   4 - H   6            0.05    0.95    0.006
   2. BD (   1) O   1 - H   3        / 27. RY*(   1) H   6                    0.07    1.41    0.009
   2. BD (   1) O   1 - H   3        / 37. BD*(   1) O   4 - H   6            0.08    0.93    0.008
  11. LP (   2) O   1                / 27. RY*(   1) H   6                    0.07    1.36    0.009
  11. LP (   2) O   1                / 36. BD*(   1) O   4 - H   5            0.20    0.88    0.012
  11. LP (   2) O   1                / 37. BD*(   1) O   4 - H   6            0.10    0.88    0.008

 from unit  1 to unit  3
   1. BD (   1) O   1 - H   2        / 39. BD*(   1) O   7 - H   9            0.11    1.04    0.010

 from unit  2 to unit  1
   3. BD (   1) O   4 - H   5        / 20. RY*(   1) H   2                    0.06    1.66    0.009
   3. BD (   1) O   4 - H   5        / 34. BD*(   1) O   1 - H   2            0.36    1.11    0.018
   4. BD (   1) O   4 - H   6        / 16. RY*(   1) O   1                    0.08    3.32    0.015
   4. BD (   1) O   4 - H   6        / 20. RY*(   1) H   2                    0.27    1.66    0.019
   4. BD (   1) O   4 - H   6        / 34. BD*(   1) O   1 - H   2            0.91    1.11    0.029
   8. CR (   1) O   4                / 20. RY*(   1) H   2                    0.06   19.82    0.031
   8. CR (   1) O   4                / 34. BD*(   1) O   1 - H   2            0.26   19.27    0.064
  13. LP (   2) O   4                / 34. BD*(   1) O   1 - H   2            9.59    1.06    0.091

 within unit  2
  13. LP (   2) O   4                / 26. RY*(   1) H   5                    0.63    1.45    0.027
  13. LP (   2) O   4                / 27. RY*(   1) H   6                    0.63    1.45    0.027

 from unit  2 to unit  3
   3. BD (   1) O   4 - H   5        / 28. RY*(   1) O   7                    0.08    3.32    0.015
   3. BD (   1) O   4 - H   5        / 33. RY*(   1) H   9                    0.27    1.66    0.019
   3. BD (   1) O   4 - H   5        / 39. BD*(   1) O   7 - H   9            0.91    1.11    0.029
   4. BD (   1) O   4 - H   6        / 33. RY*(   1) H   9                    0.06    1.66    0.009
   4. BD (   1) O   4 - H   6        / 39. BD*(   1) O   7 - H   9            0.36    1.11    0.018
   8. CR (   1) O   4                / 33. RY*(   1) H   9                    0.06   19.82    0.031
   8. CR (   1) O   4                / 39. BD*(   1) O   7 - H   9            0.26   19.27    0.063
  13. LP (   2) O   4                / 39. BD*(   1) O   7 - H   9            9.49    1.06    0.090

 from unit  3 to unit  1
   6. BD (   1) O   7 - H   9        / 34. BD*(   1) O   1 - H   2            0.11    1.04    0.010

 from unit  3 to unit  2
   5. BD (   1) O   7 - H   8        / 26. RY*(   1) H   5                    0.08    1.41    0.009
   5. BD (   1) O   7 - H   8        / 36. BD*(   1) O   4 - H   5            0.08    0.93    0.008
   6. BD (   1) O   7 - H   9        / 23. RY*(   2) O   4                    0.05    2.35    0.010
   6. BD (   1) O   7 - H   9        / 26. RY*(   1) H   5                    0.07    1.43    0.009
   6. BD (   1) O   7 - H   9        / 36. BD*(   1) O   4 - H   5            0.06    0.95    0.006
   6. BD (   1) O   7 - H   9        / 37. BD*(   1) O   4 - H   6            0.52    0.95    0.020
  15. LP (   2) O   7                / 26. RY*(   1) H   5                    0.07    1.36    0.009
  15. LP (   2) O   7                / 36. BD*(   1) O   4 - H   5            0.10    0.88    0.009
  15. LP (   2) O   7                / 37. BD*(   1) O   4 - H   6            0.20    0.88    0.012

 within unit  3
   9. CR (   1) O   7                / 33. RY*(   1) H   9                    0.75   19.70    0.108
  15. LP (   2) O   7                / 32. RY*(   1) H   8                    0.62    1.41    0.026


 Natural Bond Orbitals (Summary):

                                                            Principal Delocalizations
           NBO                        Occupancy    Energy   (geminal,vicinal,remote)
 ====================================================================================
 Molecular unit  1  (H2O)
     1. BD (   1) O   1 - H   2          1.99579    -0.67504  36(r),39(r),27(r),37(r)
                                                    23(r)
     2. BD (   1) O   1 - H   3          1.99844    -0.65238  37(r),27(r)
     7. CR (   1) O   1                  1.99982   -18.78147  20(v)
    10. LP (   1) O   1                  1.99999    -0.23752   
    11. LP (   2) O   1                  1.99421    -0.60365  21(v),36(r),37(r),27(r)
    16. RY*(   1) O   1                  0.00020     2.57322   
    17. RY*(   2) O   1                  0.00005     1.67608   
    18. RY*(   3) O   1                  0.00001     1.79111   
    19. RY*(   4) O   1                  0.00001     1.45735   
    20. RY*(   1) H   2                  0.00264     0.91457   
    21. RY*(   1) H   3                  0.00134     0.80466   
    34. BD*(   1) O   1 - H   2          0.02932     0.36873   
    35. BD*(   1) O   1 - H   3          0.00068     0.33057   
       -------------------------------
              Total Lewis    9.98826  ( 99.6583%)
        Valence non-Lewis    0.03000  (  0.2993%)
        Rydberg non-Lewis    0.00425  (  0.0424%)
       -------------------------------
            Total unit  1   10.02251  (100.0000%)
           Charge unit  1   -0.02251

 Molecular unit  2  (H2O)
     3. BD (   1) O   4 - H   5          1.99449    -0.74532  39(r),34(r),33(r),28(r)
                                                    20(r)
     4. BD (   1) O   4 - H   6          1.99450    -0.74531  34(r),39(r),20(r),16(r)
                                                    33(r)
     8. CR (   1) O   4                  1.99982   -18.90252  34(r),39(r),20(r),33(r)
    12. LP (   1) O   4                  1.99999    -0.33059   
    13. LP (   2) O   4                  1.94495    -0.69248  34(r),39(r),27(v),26(v)
    22. RY*(   1) O   4                  0.00026     1.77656   
    23. RY*(   2) O   4                  0.00019     1.67304   
    24. RY*(   3) O   4                  0.00002     2.50443   
    25. RY*(   4) O   4                  0.00002     1.36727   
    26. RY*(   1) H   5                  0.00304     0.75831   
    27. RY*(   1) H   6                  0.00302     0.75821   
    36. BD*(   1) O   4 - H   5          0.00749     0.27587   
    37. BD*(   1) O   4 - H   6          0.00744     0.27588   
       -------------------------------
              Total Lewis    9.93374  ( 99.7843%)
        Valence non-Lewis    0.01494  (  0.1500%)
        Rydberg non-Lewis    0.00654  (  0.0657%)
       -------------------------------
            Total unit  2    9.95522  (100.0000%)
           Charge unit  2    0.04478

 Molecular unit  3  (H2O)
     5. BD (   1) O   7 - H   8          1.99843    -0.65255  36(r),26(r)
     6. BD (   1) O   7 - H   9          1.99580    -0.67514  37(r),34(r),26(r),36(r)
                                                    23(r)
     9. CR (   1) O   7                  1.99982   -18.78170  33(v)
    14. LP (   1) O   7                  1.99999    -0.23768   
    15. LP (   2) O   7                  1.99418    -0.60386  32(v),37(r),36(r),26(r)
    28. RY*(   1) O   7                  0.00020     2.57057   
    29. RY*(   2) O   7                  0.00005     1.67630   
    30. RY*(   3) O   7                  0.00001     1.79247   
    31. RY*(   4) O   7                  0.00001     1.45719   
    32. RY*(   1) H   8                  0.00134     0.80453   
    33. RY*(   1) H   9                  0.00264     0.91442   
    38. BD*(   1) O   7 - H   8          0.00068     0.33041   
    39. BD*(   1) O   7 - H   9          0.02913     0.36861   
       -------------------------------
              Total Lewis    9.98822  ( 99.6602%)
        Valence non-Lewis    0.02981  (  0.2974%)
        Rydberg non-Lewis    0.00425  (  0.0424%)
       -------------------------------
            Total unit  3   10.02227  (100.0000%)
           Charge unit  3   -0.02227
 Calling FoFJK, ICntrl=      2127 FMM=F ISym2X=1 I1Cent= 0 IOpClX= 0 NMat=1 NMatS=1 NMatT=0.
 ***** Axes restored to original set *****
 -------------------------------------------------------------------
 Center     Atomic                   Forces (Hartrees/Bohr)
 Number     Number              X              Y              Z
 -------------------------------------------------------------------
      1        8          -0.000021956    0.000023191    0.000000000
      2        1           0.000022537   -0.000021901    0.000000000
      3        1           0.000005758   -0.000004773    0.000000000
      4        8          -0.000003354    0.000026792    0.000000000
      5        1          -0.000006174   -0.000005793    0.000000000
      6        1           0.000008644   -0.000008914    0.000000000
      7        8           0.000000513    0.000034005    0.000000000
      8        1          -0.000002377   -0.000001244    0.000000000
      9        1          -0.000003590   -0.000041362    0.000000000
 -------------------------------------------------------------------
 Cartesian Forces:  Max     0.000041362 RMS     0.000014790

 GradGradGradGradGradGradGradGradGradGradGradGradGradGradGradGradGradGrad
 Berny optimization.
 FormGI is forming the generalized inverse of G from B-inverse, IUseBI=4.
 Internal  Forces:  Max     0.000054749 RMS     0.000015228
 Search for a local minimum.
 Step number   1 out of a maximum of   36
 All quantities printed in internal units (Hartrees-Bohrs-Radians)
 Mixed Optimization -- En-DIIS/RFO-DIIS
 Second derivative matrix not updated -- first step.
 ITU=  0
     Eigenvalues ---    0.00230   0.00230   0.00230   0.00230   0.01071
     Eigenvalues ---    0.01072   0.04813   0.04829   0.16000   0.16000
     Eigenvalues ---    0.16000   0.16000   0.16000   0.25000   0.25000
     Eigenvalues ---    0.48264   0.48275   0.48405   0.48405   0.49192
     Eigenvalues ---    0.49193
 RFO step:  Lambda=-2.36812864D-08 EMin= 2.30000000D-03
 Linear search not attempted -- first point.
 Iteration  1 RMS(Cart)=  0.00020429 RMS(Int)=  0.00000002
 Iteration  2 RMS(Cart)=  0.00000003 RMS(Int)=  0.00000000
 ClnCor:  largest displacement from symmetrization is 7.39D-14 for atom     8.
 Variable       Old X    -DE/DX   Delta X   Delta X   Delta X     New X
                                 (Linear)    (Quad)   (Total)
    R1        1.88359  -0.00001   0.00000  -0.00001  -0.00001   1.88358
    R2        1.88210   0.00001   0.00000   0.00002   0.00002   1.88211
    R3        3.65116   0.00000   0.00000   0.00002   0.00002   3.65118
    R4        1.87389   0.00001   0.00000   0.00002   0.00002   1.87390
    R5        1.87389   0.00001   0.00000   0.00002   0.00002   1.87392
    R6        3.65469   0.00000   0.00000  -0.00007  -0.00007   3.65462
    R7        1.88210   0.00000   0.00000   0.00001   0.00001   1.88210
    R8        1.88347   0.00002   0.00000   0.00003   0.00003   1.88350
    A1        1.83318   0.00000   0.00000   0.00001   0.00001   1.83320
    A2        2.71110   0.00005   0.00000   0.00019   0.00019   2.71129
    A3        2.86929   0.00000   0.00000  -0.00003  -0.00003   2.86926
    A4        1.55032   0.00001   0.00000   0.00004   0.00004   1.55036
    A5        1.32153  -0.00001   0.00000  -0.00006  -0.00006   1.32146
    A6        1.86357   0.00000   0.00000  -0.00001  -0.00001   1.86356
    A7        1.54776   0.00001   0.00000   0.00003   0.00003   1.54780
    A8        2.87185   0.00000   0.00000  -0.00002  -0.00002   2.87183
    A9        1.83327   0.00000   0.00000   0.00001   0.00001   1.83328
   A10        2.70763   0.00005   0.00000   0.00022   0.00022   2.70785
    D1        0.00000   0.00000   0.00000   0.00000   0.00000   0.00000
    D2        3.14159   0.00000   0.00000   0.00000   0.00000   3.14159
    D3        0.00000   0.00000   0.00000   0.00000   0.00000   0.00000
    D4        3.14159   0.00000   0.00000   0.00000   0.00000   3.14159
    D5        3.14159   0.00000   0.00000   0.00000   0.00000   3.14159
    D6        0.00000   0.00000   0.00000   0.00000   0.00000   0.00000
    D7        3.14159   0.00000   0.00000   0.00000   0.00000   3.14159
    D8        0.00000   0.00000   0.00000   0.00000   0.00000   0.00000
         Item               Value     Threshold  Converged?
 Maximum Force            0.000055     0.000450     YES
 RMS     Force            0.000015     0.000300     YES
 Maximum Displacement     0.000493     0.001800     YES
 RMS     Displacement     0.000204     0.001200     YES
 Predicted change in Energy=-1.184064D-08
 Optimization completed.
    -- Stationary point found.
                           ----------------------------
                           !   Optimized Parameters   !
                           ! (Angstroms and Degrees)  !
 --------------------------                            --------------------------
 ! Name  Definition              Value          Derivative Info.                !
 --------------------------------------------------------------------------------
 ! R1    R(1,2)                  0.9968         -DE/DX =    0.0                 !
 ! R2    R(1,3)                  0.996          -DE/DX =    0.0                 !
 ! R3    R(2,4)                  1.9321         -DE/DX =    0.0                 !
 ! R4    R(4,5)                  0.9916         -DE/DX =    0.0                 !
 ! R5    R(4,6)                  0.9916         -DE/DX =    0.0                 !
 ! R6    R(4,9)                  1.934          -DE/DX =    0.0                 !
 ! R7    R(7,8)                  0.996          -DE/DX =    0.0                 !
 ! R8    R(7,9)                  0.9967         -DE/DX =    0.0                 !
 ! A1    A(2,1,3)              105.0337         -DE/DX =    0.0                 !
 ! A2    A(1,2,4)              155.3344         -DE/DX =    0.0                 !
 ! A3    A(2,4,5)              164.3982         -DE/DX =    0.0                 !
 ! A4    A(2,4,6)               88.8271         -DE/DX =    0.0                 !
 ! A5    A(2,4,9)               75.7179         -DE/DX =    0.0                 !
 ! A6    A(5,4,6)              106.7748         -DE/DX =    0.0                 !
 ! A7    A(5,4,9)               88.6802         -DE/DX =    0.0                 !
 ! A8    A(6,4,9)              164.545          -DE/DX =    0.0                 !
 ! A9    A(8,7,9)              105.0389         -DE/DX =    0.0                 !
 ! A10   A(4,9,7)              155.1358         -DE/DX =    0.0001              !
 ! D1    D(3,1,2,4)              0.0            -DE/DX =    0.0                 !
 ! D2    D(1,2,4,5)            180.0            -DE/DX =    0.0                 !
 ! D3    D(1,2,4,6)              0.0            -DE/DX =    0.0                 !
 ! D4    D(1,2,4,9)            180.0            -DE/DX =    0.0                 !
 ! D5    D(2,4,9,7)            180.0            -DE/DX =    0.0                 !
 ! D6    D(5,4,9,7)              0.0            -DE/DX =    0.0                 !
 ! D7    D(6,4,9,7)            180.0            -DE/DX =    0.0                 !
 ! D8    D(8,7,9,4)              0.0            -DE/DX =    0.0                 !
 --------------------------------------------------------------------------------
 GradGradGradGradGradGradGradGradGradGradGradGradGradGradGradGradGradGrad

                          Input orientation:                          
 ---------------------------------------------------------------------
 Center     Atomic      Atomic             Coordinates (Angstroms)
 Number     Number       Type             X           Y           Z
 ---------------------------------------------------------------------
      1          8           0        2.071436    0.779922    0.000000
      2          1           0        1.186800    0.320647    0.000000
      3          1           0        2.743922    0.045277    0.000000
      4          8           0        0.000000   -1.204001    0.000000
      5          1           0       -0.797113   -1.793847    0.000000
      6          1           0        0.794803   -1.796960    0.000000
      7          8           0       -2.071446    0.781089    0.000000
      8          1           0       -2.742439    0.045079    0.000000
      9          1           0       -1.185894    0.323721    0.000000
 ---------------------------------------------------------------------
                    Distance matrix (angstroms):
                    1          2          3          4          5
     1  O    0.000000
     2  H    0.996752   0.000000
     3  H    0.995962   1.581283   0.000000
     4  O    2.868239   1.932109   3.014930   0.000000
     5  H    3.853941   2.899482   3.990151   0.991618   0.000000
     6  H    2.875780   2.153583   2.681958   0.991621   1.591919
     7  O    4.142883   3.290619   4.871262   2.869054   2.873016
     8  H    4.869640   3.938891   5.486361   3.013498   2.676928
     9  H    3.289121   2.372696   3.939668   1.933980   2.152962
                    6          7          8          9
     6  H    0.000000
     7  O    3.855091   0.000000
     8  H    3.988131   0.995964   0.000000
     9  H    2.901801   0.996689   1.581289   0.000000
 Stoichiometry    H6O3
 Framework group  CS[SG(H6O3)]
 Deg. of freedom    15
 Full point group                 CS      NOp   2
 Largest Abelian subgroup         CS      NOp   2
 Largest concise Abelian subgroup C1      NOp   1
                         Standard orientation:                         
 ---------------------------------------------------------------------
 Center     Atomic      Atomic             Coordinates (Angstroms)
 Number     Number       Type             X           Y           Z
 ---------------------------------------------------------------------
      1          8           0        2.071436   -0.779922    0.000000
      2          1           0        1.186800   -0.320647    0.000000
      3          1           0        2.743922   -0.045277    0.000000
      4          8           0        0.000000    1.204001    0.000000
      5          1           0       -0.797113    1.793847    0.000000
      6          1           0        0.794803    1.796960    0.000000
      7          8           0       -2.071446   -0.781089    0.000000
      8          1           0       -2.742439   -0.045079    0.000000
      9          1           0       -1.185894   -0.323721    0.000000
 ---------------------------------------------------------------------
 Rotational constants (GHZ):     10.2642777      3.2283120      2.4558881
 1\1\GINC-CH-MINT\FOpt\RB3LYP\3-21G\H6O3\CJS14\21-May-2015\0\\# opt b3l
 yp/3-21g pop=(nbo,full) geom=connectivity GFInput\\test h20\\0,1\O,2.0
 7143623,0.77992189,0.\H,1.1868,0.32064685,0.\H,2.74392194,0.04527674,0
 .\O,0.,-1.20400079,0.\H,-0.79711257,-1.793847,0.\H,0.79480333,-1.79695
 986,0.\O,-2.0714462,0.78108937,0.\H,-2.7424392,0.04507866,0.\H,-1.1858
 9374,0.3237208,0.\\Version=EM64M-G09RevD.01\State=1-A'\HF=-227.9434919
 \RMSD=3.564e-09\RMSF=1.479e-05\Dipole=-0.000882,-2.7985204,0.\Quadrupo
 le=0.3436968,1.2556707,-1.5993675,0.0030928,0.,0.\PG=CS [SG(H6O3)]\\@


 THE WISE MAN HAS THE POWER TO REASON AWAY
 WHAT A FOOL BELIEVES.
                     - DOOBIE BROTHERS
 Job cpu time:       0 days  0 hours  0 minutes  2.4 seconds.
 File lengths (MBytes):  RWF=      5 Int=      0 D2E=      0 Chk=      1 Scr=      1
 Normal termination of Gaussian 09 at Thu May 21 11:42:18 2015.
