 Entering Gaussian System, Link 0=g09
 Input=/Users/cjs14/Dropbox/Mres_Project/gaussian/test_h20_opt.com
 Output=/Users/cjs14/Dropbox/Mres_Project/gaussian/test_h20_opt.log
 Initial command:
 /Applications/g09/l1.exe "/Users/cjs14/Work/Jobs/tmp/Gau-72824.inp" -scrdir="/Users/cjs14/Work/Jobs/tmp/"
 Entering Link 1 = /Applications/g09/l1.exe PID=     72825.
  
 Copyright (c) 1988,1990,1992,1993,1995,1998,2003,2009,2013,
            Gaussian, Inc.  All Rights Reserved.
  
 This is part of the Gaussian(R) 09 program.  It is based on
 the Gaussian(R) 03 system (copyright 2003, Gaussian, Inc.),
 the Gaussian(R) 98 system (copyright 1998, Gaussian, Inc.),
 the Gaussian(R) 94 system (copyright 1995, Gaussian, Inc.),
 the Gaussian 92(TM) system (copyright 1992, Gaussian, Inc.),
 the Gaussian 90(TM) system (copyright 1990, Gaussian, Inc.),
 the Gaussian 88(TM) system (copyright 1988, Gaussian, Inc.),
 the Gaussian 86(TM) system (copyright 1986, Carnegie Mellon
 University), and the Gaussian 82(TM) system (copyright 1983,
 Carnegie Mellon University). Gaussian is a federally registered
 trademark of Gaussian, Inc.
  
 This software contains proprietary and confidential information,
 including trade secrets, belonging to Gaussian, Inc.
  
 This software is provided under written license and may be
 used, copied, transmitted, or stored only in accord with that
 written license.
  
 The following legend is applicable only to US Government
 contracts under FAR:
  
                    RESTRICTED RIGHTS LEGEND
  
 Use, reproduction and disclosure by the US Government is
 subject to restrictions as set forth in subparagraphs (a)
 and (c) of the Commercial Computer Software - Restricted
 Rights clause in FAR 52.227-19.
  
 Gaussian, Inc.
 340 Quinnipiac St., Bldg. 40, Wallingford CT 06492
  
  
 ---------------------------------------------------------------
 Warning -- This program may not be used in any manner that
 competes with the business of Gaussian, Inc. or will provide
 assistance to any competitor of Gaussian, Inc.  The licensee
 of this program is prohibited from giving any competitor of
 Gaussian, Inc. access to this program.  By using this program,
 the user acknowledges that Gaussian, Inc. is engaged in the
 business of creating and licensing software in the field of
 computational chemistry and represents and warrants to the
 licensee that it is not a competitor of Gaussian, Inc. and that
 it will not use this program in any manner prohibited above.
 ---------------------------------------------------------------
  

 Cite this work as:
 Gaussian 09, Revision D.01,
 M. J. Frisch, G. W. Trucks, H. B. Schlegel, G. E. Scuseria, 
 M. A. Robb, J. R. Cheeseman, G. Scalmani, V. Barone, B. Mennucci, 
 G. A. Petersson, H. Nakatsuji, M. Caricato, X. Li, H. P. Hratchian, 
 A. F. Izmaylov, J. Bloino, G. Zheng, J. L. Sonnenberg, M. Hada, 
 M. Ehara, K. Toyota, R. Fukuda, J. Hasegawa, M. Ishida, T. Nakajima, 
 Y. Honda, O. Kitao, H. Nakai, T. Vreven, J. A. Montgomery, Jr., 
 J. E. Peralta, F. Ogliaro, M. Bearpark, J. J. Heyd, E. Brothers, 
 K. N. Kudin, V. N. Staroverov, T. Keith, R. Kobayashi, J. Normand, 
 K. Raghavachari, A. Rendell, J. C. Burant, S. S. Iyengar, J. Tomasi, 
 M. Cossi, N. Rega, J. M. Millam, M. Klene, J. E. Knox, J. B. Cross, 
 V. Bakken, C. Adamo, J. Jaramillo, R. Gomperts, R. E. Stratmann, 
 O. Yazyev, A. J. Austin, R. Cammi, C. Pomelli, J. W. Ochterski, 
 R. L. Martin, K. Morokuma, V. G. Zakrzewski, G. A. Voth, 
 P. Salvador, J. J. Dannenberg, S. Dapprich, A. D. Daniels, 
 O. Farkas, J. B. Foresman, J. V. Ortiz, J. Cioslowski, 
 and D. J. Fox, Gaussian, Inc., Wallingford CT, 2013.
 
 ******************************************
 Gaussian 09:  EM64M-G09RevD.01 24-Apr-2013
                21-May-2015 
 ******************************************
 %chk=test_h20_opt.chk
 -----------------------------------
 # opt b3lyp/3-21g geom=connectivity
 -----------------------------------
 1/14=-1,18=20,19=15,26=3,38=1,57=2/1,3;
 2/9=110,12=2,17=6,18=5,40=1/2;
 3/5=5,11=2,16=1,25=1,30=1,71=1,74=-5/1,2,3;
 4//1;
 5/5=2,38=5/2;
 6/7=2,8=2,9=2,10=2,28=1/1;
 7//1,2,3,16;
 1/14=-1,18=20,19=15,26=3/3(2);
 2/9=110/2;
 99//99;
 2/9=110/2;
 3/5=5,11=2,16=1,25=1,30=1,71=1,74=-5/1,2,3;
 4/5=5,16=3,69=1/1;
 5/5=2,38=5/2;
 7//1,2,3,16;
 1/14=-1,18=20,19=15,26=3/3(-5);
 2/9=110/2;
 6/7=2,8=2,9=2,10=2,19=2,28=1/1;
 99/9=1/99;
 --------
 test h20
 --------
 Symbolic Z-matrix:
 Charge =  0 Multiplicity = 1
 O                     0.15727   2.37877   0. 
 H                     1.11727   2.37877   0. 
 H                    -0.16318   3.2837    0. 
 O                     2.60813   2.92923   0. 
 H                     3.56813   2.92923   0. 
 H                     2.28767   3.83416   0. 
 O                     2.16252   0.58322   0. 
 H                     3.12252   0.58322   0. 
 H                     1.84206   1.48816   0. 
 
 Add virtual bond connecting atoms H9         and H2         Dist= 2.17D+00.
 Add virtual bond connecting atoms O4         and H2         Dist= 3.00D+00.
 Add virtual bond connecting atoms O4         and H9         Dist= 3.08D+00.

 GradGradGradGradGradGradGradGradGradGradGradGradGradGradGradGradGradGrad
 Berny optimization.
 Initialization pass.
                           ----------------------------
                           !    Initial Parameters    !
                           ! (Angstroms and Degrees)  !
 --------------------------                            --------------------------
 ! Name  Definition              Value          Derivative Info.                !
 --------------------------------------------------------------------------------
 ! R1    R(1,2)                  0.96           estimate D2E/DX2                !
 ! R2    R(1,3)                  0.96           estimate D2E/DX2                !
 ! R3    R(2,4)                  1.5892         estimate D2E/DX2                !
 ! R4    R(2,9)                  1.1483         estimate D2E/DX2                !
 ! R5    R(4,5)                  0.96           estimate D2E/DX2                !
 ! R6    R(4,6)                  0.96           estimate D2E/DX2                !
 ! R7    R(4,9)                  1.632          estimate D2E/DX2                !
 ! R8    R(7,8)                  0.96           estimate D2E/DX2                !
 ! R9    R(7,9)                  0.96           estimate D2E/DX2                !
 ! A1    A(2,1,3)              109.5            estimate D2E/DX2                !
 ! A2    A(1,2,4)              159.7346         estimate D2E/DX2                !
 ! A3    A(1,2,9)              129.1391         estimate D2E/DX2                !
 ! A4    A(2,4,5)              159.7346         estimate D2E/DX2                !
 ! A5    A(2,4,6)               90.7654         estimate D2E/DX2                !
 ! A6    A(5,4,6)              109.5            estimate D2E/DX2                !
 ! A7    A(5,4,9)              117.9949         estimate D2E/DX2                !
 ! A8    A(6,4,9)              132.5051         estimate D2E/DX2                !
 ! A9    A(8,7,9)              109.5            estimate D2E/DX2                !
 ! A10   A(2,9,7)              160.3609         estimate D2E/DX2                !
 ! A11   A(4,9,7)              132.5051         estimate D2E/DX2                !
 ! D1    D(3,1,2,4)              0.0            estimate D2E/DX2                !
 ! D2    D(3,1,2,9)            180.0            estimate D2E/DX2                !
 ! D3    D(1,2,4,5)            180.0            estimate D2E/DX2                !
 ! D4    D(1,2,4,6)              0.0            estimate D2E/DX2                !
 ! D5    D(1,2,9,7)              0.0            estimate D2E/DX2                !
 ! D6    D(5,4,9,7)              0.0            estimate D2E/DX2                !
 ! D7    D(6,4,9,7)            180.0            estimate D2E/DX2                !
 ! D8    D(8,7,9,2)            180.0            estimate D2E/DX2                !
 ! D9    D(8,7,9,4)              0.0            estimate D2E/DX2                !
 --------------------------------------------------------------------------------
 Trust Radius=3.00D-01 FncErr=1.00D-07 GrdErr=1.00D-06
 Number of steps in this run=     39 maximum allowed number of steps=    100.
 GradGradGradGradGradGradGradGradGradGradGradGradGradGradGradGradGradGrad

                          Input orientation:                          
 ---------------------------------------------------------------------
 Center     Atomic      Atomic             Coordinates (Angstroms)
 Number     Number       Type             X           Y           Z
 ---------------------------------------------------------------------
      1          8           0        0.157274    2.378768    0.000000
      2          1           0        1.117274    2.378768    0.000000
      3          1           0       -0.163181    3.283704    0.000000
      4          8           0        2.608126    2.929227    0.000000
      5          1           0        3.568126    2.929227    0.000000
      6          1           0        2.287671    3.834163    0.000000
      7          8           0        2.162516    0.583224    0.000000
      8          1           0        3.122516    0.583224    0.000000
      9          1           0        1.842062    1.488160    0.000000
 ---------------------------------------------------------------------
                    Distance matrix (angstroms):
                    1          2          3          4          5
     1  O    0.000000
     2  H    0.960000   0.000000
     3  H    0.960000   1.567952   0.000000
     4  O    2.511908   1.589228   2.793885   0.000000
     5  H    3.454984   2.511908   3.748107   0.960000   0.000000
     6  H    2.580071   1.867620   2.511908   0.960000   1.567952
     7  O    2.691649   2.077621   3.563910   2.387948   2.734861
     8  H    3.466503   2.691649   4.253045   2.401734   2.387948
     9  H    1.905700   1.148260   2.691649   1.632032   2.248549
                    6          7          8          9
     6  H    0.000000
     7  O    3.253347   0.000000
     8  H    3.356422   0.960000   0.000000
     9  H    2.387948   0.960000   1.567952   0.000000
 Stoichiometry    H6O3
 Framework group  CS[SG(H6O3)]
 Deg. of freedom    15
 Full point group                 CS      NOp   2
 Largest Abelian subgroup         CS      NOp   2
 Largest concise Abelian subgroup C1      NOp   1
                         Standard orientation:                         
 ---------------------------------------------------------------------
 Center     Atomic      Atomic             Coordinates (Angstroms)
 Number     Number       Type             X           Y           Z
 ---------------------------------------------------------------------
      1          8           0        1.431241   -0.676213    0.000000
      2          1           0        0.497603   -0.452781    0.000000
      3          1           0        1.532279   -1.630881    0.000000
      4          8           0       -1.080422   -0.641142    0.000000
      5          1           0       -2.014059   -0.417710    0.000000
      6          1           0       -0.979383   -1.595810    0.000000
      7          8           0       -0.101039    1.536725    0.000000
      8          1           0       -1.034676    1.760157    0.000000
      9          1           0        0.000000    0.582057    0.000000
 ---------------------------------------------------------------------
 Rotational constants (GHZ):      9.8362917      7.2616490      4.1775614
 Standard basis: 3-21G (6D, 7F)
 There are    33 symmetry adapted cartesian basis functions of A'  symmetry.
 There are     6 symmetry adapted cartesian basis functions of A"  symmetry.
 There are    33 symmetry adapted basis functions of A'  symmetry.
 There are     6 symmetry adapted basis functions of A"  symmetry.
    39 basis functions,    63 primitive gaussians,    39 cartesian basis functions
    15 alpha electrons       15 beta electrons
       nuclear repulsion energy        91.2987600732 Hartrees.
 NAtoms=    9 NActive=    9 NUniq=    9 SFac= 1.00D+00 NAtFMM=   60 NAOKFM=F Big=F
 Integral buffers will be    131072 words long.
 Raffenetti 2 integral format.
 Two-electron integral symmetry is turned on.
 One-electron integrals computed using PRISM.
 NBasis=    39 RedAO= T EigKep=  3.27D-02  NBF=    33     6
 NBsUse=    39 1.00D-06 EigRej= -1.00D+00 NBFU=    33     6
 ExpMin= 1.83D-01 ExpMax= 3.22D+02 ExpMxC= 3.22D+02 IAcc=1 IRadAn=         1 AccDes= 0.00D+00
 Harris functional with IExCor=  402 and IRadAn=       1 diagonalized for initial guess.
 HarFok:  IExCor=  402 AccDes= 0.00D+00 IRadAn=         1 IDoV= 1 UseB2=F ITyADJ=14
 ICtDFT=  3500011 ScaDFX=  1.000000  1.000000  1.000000  1.000000
 FoFCou: FMM=F IPFlag=           0 FMFlag=      100000 FMFlg1=           0
         NFxFlg=           0 DoJE=T BraDBF=F KetDBF=T FulRan=T
         wScrn=  0.000000 ICntrl=     500 IOpCl=  0 I1Cent=   200000004 NGrid=           0
         NMat0=    1 NMatS0=      1 NMatT0=    0 NMatD0=    1 NMtDS0=    0 NMtDT0=    0
 Petite list used in FoFCou.
 Initial guess orbital symmetries:
       Occupied  (A') (A') (A') (A') (A') (A') (A') (A') (A') (A')
                 (A') (A') (A") (A") (A")
       Virtual   (A') (A') (A') (A') (A') (A') (A') (A') (A') (A')
                 (A') (A') (A") (A') (A") (A") (A') (A') (A') (A')
                 (A') (A') (A') (A')
 The electronic state of the initial guess is 1-A'.
 Keep R1 ints in memory in symmetry-blocked form, NReq=1191093.
 Requested convergence on RMS density matrix=1.00D-08 within 128 cycles.
 Requested convergence on MAX density matrix=1.00D-06.
 Requested convergence on             energy=1.00D-06.
 No special actions if energy rises.
 Integral accuracy reduced to 1.0D-05 until final iterations.
 Initial convergence to 1.0D-05 achieved.  Increase integral accuracy.
 SCF Done:  E(RB3LYP) =  -227.899973424     A.U. after   12 cycles
            NFock= 12  Conv=0.14D-08     -V/T= 2.0046

 **********************************************************************

            Population analysis using the SCF density.

 **********************************************************************

 Orbital symmetries:
       Occupied  (A') (A') (A') (A') (A') (A') (A') (A') (A') (A')
                 (A") (A') (A') (A") (A")
       Virtual   (A') (A') (A') (A') (A') (A') (A') (A') (A') (A')
                 (A') (A') (A") (A') (A") (A") (A') (A') (A') (A')
                 (A') (A') (A') (A')
 The electronic state is 1-A'.
 Alpha  occ. eigenvalues --  -19.08323 -18.96771 -18.94109  -1.07484  -0.97431
 Alpha  occ. eigenvalues --   -0.94054  -0.60516  -0.55757  -0.44545  -0.42226
 Alpha  occ. eigenvalues --   -0.34852  -0.29165  -0.26097  -0.23796  -0.21299
 Alpha virt. eigenvalues --    0.03554   0.11576   0.15055   0.18002   0.28569
 Alpha virt. eigenvalues --    0.45185   0.91135   0.94012   0.99376   1.01206
 Alpha virt. eigenvalues --    1.04586   1.10788   1.33638   1.42953   1.46519
 Alpha virt. eigenvalues --    1.49589   1.60442   1.68747   1.74650   1.79740
 Alpha virt. eigenvalues --    1.84519   2.67924   3.08531   3.32782
          Condensed to atoms (all electrons):
               1          2          3          4          5          6
     1  O    8.265653   0.194769   0.252644  -0.017541   0.000818   0.005452
     2  H    0.194769   0.448216  -0.036964   0.052115   0.000100  -0.007037
     3  H    0.252644  -0.036964   0.476725   0.001127  -0.000020   0.003506
     4  O   -0.017541   0.052115   0.001127   8.178566   0.240040   0.226889
     5  H    0.000818   0.000100  -0.000020   0.240040   0.403579  -0.021164
     6  H    0.005452  -0.007037   0.003506   0.226889  -0.021164   0.434236
     7  O   -0.004442  -0.007791   0.000424  -0.019613   0.004180   0.001569
     8  H    0.000145   0.002609  -0.000036   0.006936   0.002366  -0.000004
     9  H    0.016645  -0.024785  -0.001456   0.002908  -0.001475  -0.000510
               7          8          9
     1  O   -0.004442   0.000145   0.016645
     2  H   -0.007791   0.002609  -0.024785
     3  H    0.000424  -0.000036  -0.001456
     4  O   -0.019613   0.006936   0.002908
     5  H    0.004180   0.002366  -0.001475
     6  H    0.001569  -0.000004  -0.000510
     7  O    8.222893   0.258900   0.250457
     8  H    0.258900   0.504697  -0.060580
     9  H    0.250457  -0.060580   0.423078
 Mulliken charges:
               1
     1  O   -0.714142
     2  H    0.378768
     3  H    0.304050
     4  O   -0.671426
     5  H    0.371578
     6  H    0.357063
     7  O   -0.706576
     8  H    0.284967
     9  H    0.395718
 Sum of Mulliken charges =   0.00000
 Mulliken charges with hydrogens summed into heavy atoms:
               1
     1  O   -0.031324
     4  O    0.057215
     7  O   -0.025891
 Electronic spatial extent (au):  <R**2>=            285.7373
 Charge=              0.0000 electrons
 Dipole moment (field-independent basis, Debye):
    X=             -5.3886    Y=             -4.6997    Z=              0.0000  Tot=              7.1501
 Quadrupole moment (field-independent basis, Debye-Ang):
   XX=            -15.1524   YY=            -15.8058   ZZ=            -20.2609
   XY=             -1.8934   XZ=              0.0000   YZ=              0.0000
 Traceless Quadrupole moment (field-independent basis, Debye-Ang):
   XX=              1.9206   YY=              1.2673   ZZ=             -3.1879
   XY=             -1.8934   XZ=              0.0000   YZ=              0.0000
 Octapole moment (field-independent basis, Debye-Ang**2):
  XXX=            -22.3201  YYY=            -20.2188  ZZZ=              0.0000  XYY=             -4.3649
  XXY=             -2.9799  XXZ=              0.0000  XZZ=             -0.6671  YZZ=             -0.5885
  YYZ=              0.0000  XYZ=              0.0000
 Hexadecapole moment (field-independent basis, Debye-Ang**3):
 XXXX=           -117.4156 YYYY=           -128.9674 ZZZZ=            -12.4211 XXXY=             10.7253
 XXXZ=              0.0000 YYYX=             -2.1443 YYYZ=              0.0000 ZZZX=              0.0000
 ZZZY=              0.0000 XXYY=            -30.2679 XXZZ=            -26.8966 YYZZ=            -27.4211
 XXYZ=              0.0000 YYXZ=              0.0000 ZZXY=              3.6610
 N-N= 9.129876007320D+01 E-N=-7.222015742759D+02  KE= 2.268572563014D+02
 Symmetry A'   KE= 2.127160456830D+02
 Symmetry A"   KE= 1.414121061841D+01
 Calling FoFJK, ICntrl=      2127 FMM=F ISym2X=1 I1Cent= 0 IOpClX= 0 NMat=1 NMatS=1 NMatT=0.
 ***** Axes restored to original set *****
 -------------------------------------------------------------------
 Center     Atomic                   Forces (Hartrees/Bohr)
 Number     Number              X              Y              Z
 -------------------------------------------------------------------
      1        8          -0.031865175   -0.028074702    0.000000000
      2        1          -0.002135817    0.026124914    0.000000000
      3        1          -0.008612263    0.027993451    0.000000000
      4        8          -0.003799949    0.008474322    0.000000000
      5        1           0.028045567   -0.002240875    0.000000000
      6        1          -0.003677536    0.031420171    0.000000000
      7        8          -0.025355813   -0.049308715    0.000000000
      8        1           0.026295106    0.005227014    0.000000000
      9        1           0.021105881   -0.019615580    0.000000000
 -------------------------------------------------------------------
 Cartesian Forces:  Max     0.049308715 RMS     0.019100403

 GradGradGradGradGradGradGradGradGradGradGradGradGradGradGradGradGradGrad
 Berny optimization.
 FormGI is forming the generalized inverse of G from B-inverse, IUseBI=4.
 Internal  Forces:  Max     0.042341584 RMS     0.018661972
 Search for a local minimum.
 Step number   1 out of a maximum of   39
 All quantities printed in internal units (Hartrees-Bohrs-Radians)
 Mixed Optimization -- RFO/linear search
 Second derivative matrix not updated -- first step.
 ITU=  0
     Eigenvalues ---    0.00230   0.00230   0.00734   0.00810   0.01558
     Eigenvalues ---    0.01558   0.09076   0.11481   0.12889   0.16000
     Eigenvalues ---    0.16000   0.16000   0.16000   0.20583   0.21107
     Eigenvalues ---    0.55473   0.55473   0.55473   0.55473   0.55473
     Eigenvalues ---    0.55473
 RFO step:  Lambda=-3.43728503D-02 EMin= 2.30000000D-03
 Linear search not attempted -- first point.
 Maximum step size (   0.300) exceeded in Quadratic search.
    -- Step size scaled by   0.709
 Iteration  1 RMS(Cart)=  0.06946987 RMS(Int)=  0.00069120
 Iteration  2 RMS(Cart)=  0.00040720 RMS(Int)=  0.00048065
 Iteration  3 RMS(Cart)=  0.00000024 RMS(Int)=  0.00048065
 ClnCor:  largest displacement from symmetrization is 1.96D-14 for atom     1.
 Variable       Old X    -DE/DX   Delta X   Delta X   Delta X     New X
                                 (Linear)    (Quad)   (Total)
    R1        1.81414   0.04048   0.00000   0.04871   0.04871   1.86285
    R2        1.81414   0.02926   0.00000   0.03522   0.03522   1.84935
    R3        3.00320   0.01587   0.00000   0.10043   0.09955   3.10275
    R4        2.16990   0.04234   0.00000   0.18945   0.18996   2.35985
    R5        1.81414   0.02805   0.00000   0.03375   0.03375   1.84789
    R6        1.81414   0.03084   0.00000   0.03712   0.03712   1.85126
    R7        3.08409   0.03079   0.00000   0.17112   0.17160   3.25569
    R8        1.81414   0.02629   0.00000   0.03164   0.03164   1.84578
    R9        1.81414   0.04187   0.00000   0.05038   0.05038   1.86452
    A1        1.91114  -0.00223   0.00000  -0.00813  -0.00813   1.90301
    A2        2.78790  -0.00167   0.00000  -0.00768  -0.00710   2.78079
    A3        2.25390   0.00042   0.00000  -0.00361  -0.00303   2.25087
    A4        2.78790   0.00132   0.00000   0.00454   0.00389   2.79178
    A5        1.58415   0.00085   0.00000   0.00336   0.00402   1.58818
    A6        1.91114  -0.00217   0.00000  -0.00791  -0.00791   1.90323
    A7        2.05940  -0.00756   0.00000  -0.02729  -0.02664   2.03276
    A8        2.31265   0.00973   0.00000   0.03520   0.03454   2.34719
    A9        1.91114  -0.00948   0.00000  -0.03457  -0.03457   1.87656
   A10        2.79883  -0.00274   0.00000   0.00249   0.00125   2.80008
   A11        2.31265   0.01287   0.00000   0.04063   0.03940   2.35205
    D1        0.00000   0.00000   0.00000   0.00000   0.00000   0.00000
    D2        3.14159   0.00000   0.00000   0.00000   0.00000   3.14159
    D3        3.14159   0.00000   0.00000   0.00000   0.00000   3.14159
    D4        0.00000   0.00000   0.00000   0.00000   0.00000   0.00000
    D5        0.00000   0.00000   0.00000   0.00000   0.00000   0.00000
    D6        0.00000   0.00000   0.00000   0.00000   0.00000   0.00000
    D7        3.14159   0.00000   0.00000   0.00000   0.00000   3.14159
    D8        3.14159   0.00000   0.00000   0.00000   0.00000   3.14159
    D9        0.00000   0.00000   0.00000   0.00000   0.00000   0.00000
         Item               Value     Threshold  Converged?
 Maximum Force            0.042342     0.000450     NO 
 RMS     Force            0.018662     0.000300     NO 
 Maximum Displacement     0.178086     0.001800     NO 
 RMS     Displacement     0.069383     0.001200     NO 
 Predicted change in Energy=-1.728451D-02
 GradGradGradGradGradGradGradGradGradGradGradGradGradGradGradGradGradGrad

                          Input orientation:                          
 ---------------------------------------------------------------------
 Center     Atomic      Atomic             Coordinates (Angstroms)
 Number     Number       Type             X           Y           Z
 ---------------------------------------------------------------------
      1          8           0        0.098247    2.403120    0.000000
      2          1           0        1.084006    2.397223    0.000000
      3          1           0       -0.215380    3.330141    0.000000
      4          8           0        2.623637    2.967651    0.000000
      5          1           0        3.601486    2.972544    0.000000
      6          1           0        2.299308    3.892048    0.000000
      7          8           0        2.185605    0.488985    0.000000
      8          1           0        3.161997    0.515171    0.000000
      9          1           0        1.863479    1.421582    0.000000
 ---------------------------------------------------------------------
                    Distance matrix (angstroms):
                    1          2          3          4          5
     1  O    0.000000
     2  H    0.985776   0.000000
     3  H    0.978636   1.599606   0.000000
     4  O    2.587719   1.641905   2.862065   0.000000
     5  H    3.549214   2.582383   3.833580   0.977861   0.000000
     6  H    2.657362   1.926515   2.576702   0.979642   1.594099
     7  O    2.832132   2.203382   3.719797   2.517073   2.858809
     8  H    3.598738   2.803599   4.396673   2.510874   2.496364
     9  H    2.019767   1.248781   2.822100   1.722838   2.329410
                    6          7          8          9
     6  H    0.000000
     7  O    3.404962   0.000000
     8  H    3.485330   0.976744   0.000000
     9  H    2.508615   0.986662   1.583582   0.000000
 Stoichiometry    H6O3
 Framework group  CS[SG(H6O3)]
 Deg. of freedom    15
 Full point group                 CS      NOp   2
 Largest Abelian subgroup         CS      NOp   2
 Largest concise Abelian subgroup C1      NOp   1
                         Standard orientation:                         
 ---------------------------------------------------------------------
 Center     Atomic      Atomic             Coordinates (Angstroms)
 Number     Number       Type             X           Y           Z
 ---------------------------------------------------------------------
      1          8           0        1.463381   -0.746245    0.000000
      2          1           0        0.510474   -0.493813    0.000000
      3          1           0        1.535005   -1.722257    0.000000
      4          8           0       -1.122924   -0.660736    0.000000
      5          1           0       -2.070874   -0.420731    0.000000
      6          1           0       -1.040282   -1.636886    0.000000
      7          8           0       -0.078456    1.629405    0.000000
      8          1           0       -1.030326    1.848430    0.000000
      9          1           0        0.000000    0.645867    0.000000
 ---------------------------------------------------------------------
 Rotational constants (GHZ):      9.0753426      6.6366813      3.8333799
 Standard basis: 3-21G (6D, 7F)
 There are    33 symmetry adapted cartesian basis functions of A'  symmetry.
 There are     6 symmetry adapted cartesian basis functions of A"  symmetry.
 There are    33 symmetry adapted basis functions of A'  symmetry.
 There are     6 symmetry adapted basis functions of A"  symmetry.
    39 basis functions,    63 primitive gaussians,    39 cartesian basis functions
    15 alpha electrons       15 beta electrons
       nuclear repulsion energy        87.9816607917 Hartrees.
 NAtoms=    9 NActive=    9 NUniq=    9 SFac= 1.00D+00 NAtFMM=   60 NAOKFM=F Big=F
 Integral buffers will be    131072 words long.
 Raffenetti 2 integral format.
 Two-electron integral symmetry is turned on.
 One-electron integrals computed using PRISM.
 NBasis=    39 RedAO= T EigKep=  4.10D-02  NBF=    33     6
 NBsUse=    39 1.00D-06 EigRej= -1.00D+00 NBFU=    33     6
 Initial guess from the checkpoint file:  "test_h20_opt.chk"
 B after Tr=     0.000000    0.000000    0.000000
         Rot=    0.999956    0.000000    0.000000    0.009356 Ang=   1.07 deg.
 Initial guess orbital symmetries:
       Occupied  (A') (A') (A') (A') (A') (A') (A') (A') (A') (A')
                 (A") (A') (A') (A") (A")
       Virtual   (A') (A') (A') (A') (A') (A') (A') (A') (A') (A')
                 (A') (A') (A') (A') (A') (A') (A') (A') (A') (A')
                 (A') (A") (A") (A")
 ExpMin= 1.83D-01 ExpMax= 3.22D+02 ExpMxC= 3.22D+02 IAcc=1 IRadAn=         1 AccDes= 0.00D+00
 Harris functional with IExCor=  402 and IRadAn=       1 diagonalized for initial guess.
 HarFok:  IExCor=  402 AccDes= 0.00D+00 IRadAn=         1 IDoV= 1 UseB2=F ITyADJ=14
 ICtDFT=  3500011 ScaDFX=  1.000000  1.000000  1.000000  1.000000
 FoFCou: FMM=F IPFlag=           0 FMFlag=      100000 FMFlg1=           0
         NFxFlg=           0 DoJE=T BraDBF=F KetDBF=T FulRan=T
         wScrn=  0.000000 ICntrl=     500 IOpCl=  0 I1Cent=   200000004 NGrid=           0
         NMat0=    1 NMatS0=      1 NMatT0=    0 NMatD0=    1 NMtDS0=    0 NMtDT0=    0
 Petite list used in FoFCou.
 Keep R1 ints in memory in symmetry-blocked form, NReq=1191093.
 Requested convergence on RMS density matrix=1.00D-08 within 128 cycles.
 Requested convergence on MAX density matrix=1.00D-06.
 Requested convergence on             energy=1.00D-06.
 No special actions if energy rises.
 Integral accuracy reduced to 1.0D-05 until final iterations.
 Initial convergence to 1.0D-05 achieved.  Increase integral accuracy.
 SCF Done:  E(RB3LYP) =  -227.918483661     A.U. after   11 cycles
            NFock= 11  Conv=0.68D-08     -V/T= 2.0060
 Calling FoFJK, ICntrl=      2127 FMM=F ISym2X=1 I1Cent= 0 IOpClX= 0 NMat=1 NMatS=1 NMatT=0.
 ***** Axes restored to original set *****
 -------------------------------------------------------------------
 Center     Atomic                   Forces (Hartrees/Bohr)
 Number     Number              X              Y              Z
 -------------------------------------------------------------------
      1        8          -0.011863926   -0.015502723    0.000000000
      2        1          -0.014817401    0.021631790    0.000000000
      3        1          -0.000950085    0.012297186    0.000000000
      4        8          -0.001237608    0.010675582    0.000000000
      5        1           0.010751622   -0.001099345    0.000000000
      6        1           0.002164343    0.012287304    0.000000000
      7        8          -0.017272045   -0.019030707    0.000000000
      8        1           0.012706440    0.004962989    0.000000000
      9        1           0.020518658   -0.026222076    0.000000000
 -------------------------------------------------------------------
 Cartesian Forces:  Max     0.026222076 RMS     0.011488895

 GradGradGradGradGradGradGradGradGradGradGradGradGradGradGradGradGradGrad
 Berny optimization.
 Using GEDIIS/GDIIS optimizer.
 FormGI is forming the generalized inverse of G from B-inverse, IUseBI=4.
 Internal  Forces:  Max     0.028530947 RMS     0.008925221
 Search for a local minimum.
 Step number   2 out of a maximum of   39
 All quantities printed in internal units (Hartrees-Bohrs-Radians)
 Mixed Optimization -- RFO/linear search
 Update second derivatives using D2CorX and points    1    2
 DE= -1.85D-02 DEPred=-1.73D-02 R= 1.07D+00
 TightC=F SS=  1.41D+00  RLast= 3.00D-01 DXNew= 5.0454D-01 8.9990D-01
 Trust test= 1.07D+00 RLast= 3.00D-01 DXMaxT set to 5.05D-01
 ITU=  1  0
 Use linear search instead of GDIIS.
 Linear search step of   0.600 exceeds DXMaxT=   0.505 but not scaled.
 Quartic linear search produced a step of  2.00000.
 Iteration  1 RMS(Cart)=  0.09910480 RMS(Int)=  0.04109978
 Iteration  2 RMS(Cart)=  0.04817739 RMS(Int)=  0.00247561
 Iteration  3 RMS(Cart)=  0.00050331 RMS(Int)=  0.00244856
 Iteration  4 RMS(Cart)=  0.00000050 RMS(Int)=  0.00244856
 ClnCor:  largest displacement from symmetrization is 6.18D-10 for atom     5.
 Variable       Old X    -DE/DX   Delta X   Delta X   Delta X     New X
                                 (Linear)    (Quad)   (Total)
    R1        1.86285   0.01279   0.09742   0.00000   0.09742   1.96027
    R2        1.84935   0.01195   0.07044   0.00000   0.07044   1.91979
    R3        3.10275   0.00991   0.19909   0.00000   0.19512   3.29787
    R4        2.35985   0.02853   0.37992   0.00000   0.38227   2.74212
    R5        1.84789   0.01075   0.06750   0.00000   0.06750   1.91539
    R6        1.85126   0.01088   0.07424   0.00000   0.07424   1.92549
    R7        3.25569   0.01758   0.34320   0.00000   0.34505   3.60074
    R8        1.84578   0.01283   0.06328   0.00000   0.06328   1.90906
    R9        1.86452   0.01181   0.10077   0.00000   0.10077   1.96529
    A1        1.90301  -0.00563  -0.01625   0.00000  -0.01625   1.88675
    A2        2.78079   0.00065  -0.01420   0.00000  -0.01124   2.76955
    A3        2.25087   0.00017  -0.00607   0.00000  -0.00311   2.24776
    A4        2.79178   0.00083   0.00777   0.00000   0.00429   2.79607
    A5        1.58818   0.00147   0.00804   0.00000   0.01153   1.59970
    A6        1.90323  -0.00229  -0.01582   0.00000  -0.01582   1.88741
    A7        2.03276  -0.00526  -0.05327   0.00000  -0.04979   1.98298
    A8        2.34719   0.00755   0.06909   0.00000   0.06560   2.41280
    A9        1.87656  -0.00853  -0.06915   0.00000  -0.06915   1.80741
   A10        2.80008  -0.00141   0.00251   0.00000  -0.00394   2.79614
   A11        2.35205   0.00668   0.07880   0.00000   0.07236   2.42441
    D1        0.00000   0.00000   0.00000   0.00000   0.00000   0.00000
    D2        3.14159   0.00000   0.00000   0.00000   0.00000   3.14159
    D3        3.14159   0.00000   0.00000   0.00000   0.00000   3.14159
    D4        0.00000   0.00000   0.00000   0.00000   0.00000   0.00000
    D5        0.00000   0.00000   0.00000   0.00000   0.00000   0.00000
    D6        0.00000   0.00000   0.00000   0.00000   0.00000   0.00000
    D7        3.14159   0.00000   0.00000   0.00000   0.00000   3.14159
    D8        3.14159   0.00000   0.00000   0.00000   0.00000   3.14159
    D9        0.00000   0.00000   0.00000   0.00000   0.00000   0.00000
         Item               Value     Threshold  Converged?
 Maximum Force            0.028531     0.000450     NO 
 RMS     Force            0.008925     0.000300     NO 
 Maximum Displacement     0.354385     0.001800     NO 
 RMS     Displacement     0.137698     0.001200     NO 
 Predicted change in Energy=-4.328161D-03
 GradGradGradGradGradGradGradGradGradGradGradGradGradGradGradGradGradGrad

                          Input orientation:                          
 ---------------------------------------------------------------------
 Center     Atomic      Atomic             Coordinates (Angstroms)
 Number     Number       Type             X           Y           Z
 ---------------------------------------------------------------------
      1          8           0       -0.019644    2.450955    0.000000
      2          1           0        1.017560    2.434919    0.000000
      3          1           0       -0.320349    3.421340    0.000000
      4          8           0        2.652937    3.044109    0.000000
      5          1           0        3.666457    3.055317    0.000000
      6          1           0        2.325002    4.008822    0.000000
      7          8           0        2.232209    0.301453    0.000000
      8          1           0        3.239255    0.381623    0.000000
      9          1           0        1.908959    1.289926    0.000000
 ---------------------------------------------------------------------
                    Distance matrix (angstroms):
                    1          2          3          4          5
     1  O    0.000000
     2  H    1.037328   0.000000
     3  H    1.015909   1.662236   0.000000
     4  O    2.737612   1.745156   2.997121   0.000000
     5  H    3.735317   2.720579   4.003572   1.013582   0.000000
     6  H    2.815016   2.046113   2.709800   1.018927   1.645804
     7  O    3.113070   2.455005   4.031036   2.774738   3.104970
     8  H    3.860383   3.025219   4.680882   2.726279   2.707608
     9  H    2.251111   1.451069   3.084273   1.905428   2.491064
                    6          7          8          9
     6  H    0.000000
     7  O    3.708530   0.000000
     8  H    3.740645   1.010232   0.000000
     9  H    2.750542   1.039986   1.610807   0.000000
 Stoichiometry    H6O3
 Framework group  CS[SG(H6O3)]
 Deg. of freedom    15
 Full point group                 CS      NOp   2
 Largest Abelian subgroup         CS      NOp   2
 Largest concise Abelian subgroup C1      NOp   1
                         Standard orientation:                         
 ---------------------------------------------------------------------
 Center     Atomic      Atomic             Coordinates (Angstroms)
 Number     Number       Type             X           Y           Z
 ---------------------------------------------------------------------
      1          8           0        1.525443   -0.882191    0.000000
      2          1           0        0.534389   -0.575823    0.000000
      3          1           0        1.541842   -1.897968    0.000000
      4          8           0       -1.206217   -0.701763    0.000000
      5          1           0       -2.182181   -0.428191    0.000000
      6          1           0       -1.162090   -1.719735    0.000000
      7          8           0       -0.032964    1.812725    0.000000
      8          1           0       -1.022060    2.018289    0.000000
      9          1           0        0.000000    0.773261    0.000000
 ---------------------------------------------------------------------
 Rotational constants (GHZ):      7.8946336      5.5563007      3.2611086
 Standard basis: 3-21G (6D, 7F)
 There are    33 symmetry adapted cartesian basis functions of A'  symmetry.
 There are     6 symmetry adapted cartesian basis functions of A"  symmetry.
 There are    33 symmetry adapted basis functions of A'  symmetry.
 There are     6 symmetry adapted basis functions of A"  symmetry.
    39 basis functions,    63 primitive gaussians,    39 cartesian basis functions
    15 alpha electrons       15 beta electrons
       nuclear repulsion energy        82.1185218280 Hartrees.
 NAtoms=    9 NActive=    9 NUniq=    9 SFac= 1.00D+00 NAtFMM=   60 NAOKFM=F Big=F
 Integral buffers will be    131072 words long.
 Raffenetti 2 integral format.
 Two-electron integral symmetry is turned on.
 One-electron integrals computed using PRISM.
 NBasis=    39 RedAO= T EigKep=  6.15D-02  NBF=    33     6
 NBsUse=    39 1.00D-06 EigRej= -1.00D+00 NBFU=    33     6
 Initial guess from the checkpoint file:  "test_h20_opt.chk"
 B after Tr=     0.000000    0.000000    0.000000
         Rot=    0.999871    0.000000    0.000000    0.016086 Ang=   1.84 deg.
 Initial guess orbital symmetries:
       Occupied  (A') (A') (A') (A') (A') (A') (A') (A') (A') (A')
                 (A") (A') (A') (A") (A")
       Virtual   (A') (A') (A') (A') (A') (A') (A') (A') (A') (A')
                 (A') (A') (A') (A') (A') (A') (A') (A') (A') (A')
                 (A') (A") (A") (A")
 ExpMin= 1.83D-01 ExpMax= 3.22D+02 ExpMxC= 3.22D+02 IAcc=1 IRadAn=         1 AccDes= 0.00D+00
 Harris functional with IExCor=  402 and IRadAn=       1 diagonalized for initial guess.
 HarFok:  IExCor=  402 AccDes= 0.00D+00 IRadAn=         1 IDoV= 1 UseB2=F ITyADJ=14
 ICtDFT=  3500011 ScaDFX=  1.000000  1.000000  1.000000  1.000000
 FoFCou: FMM=F IPFlag=           0 FMFlag=      100000 FMFlg1=           0
         NFxFlg=           0 DoJE=T BraDBF=F KetDBF=T FulRan=T
         wScrn=  0.000000 ICntrl=     500 IOpCl=  0 I1Cent=   200000004 NGrid=           0
         NMat0=    1 NMatS0=      1 NMatT0=    0 NMatD0=    1 NMtDS0=    0 NMtDT0=    0
 Petite list used in FoFCou.
 Keep R1 ints in memory in symmetry-blocked form, NReq=1191093.
 Requested convergence on RMS density matrix=1.00D-08 within 128 cycles.
 Requested convergence on MAX density matrix=1.00D-06.
 Requested convergence on             energy=1.00D-06.
 No special actions if energy rises.
 Integral accuracy reduced to 1.0D-05 until final iterations.
 Initial convergence to 1.0D-05 achieved.  Increase integral accuracy.
 SCF Done:  E(RB3LYP) =  -227.929441796     A.U. after   12 cycles
            NFock= 12  Conv=0.22D-08     -V/T= 2.0081
 Calling FoFJK, ICntrl=      2127 FMM=F ISym2X=1 I1Cent= 0 IOpClX= 0 NMat=1 NMatS=1 NMatT=0.
 ***** Axes restored to original set *****
 -------------------------------------------------------------------
 Center     Atomic                   Forces (Hartrees/Bohr)
 Number     Number              X              Y              Z
 -------------------------------------------------------------------
      1        8           0.016666687    0.006278243    0.000000000
      2        1          -0.037905538    0.017990464    0.000000000
      3        1           0.010647278   -0.013775585    0.000000000
      4        8           0.007425943    0.022664362    0.000000000
      5        1          -0.017870418    0.000854606    0.000000000
      6        1           0.012023064   -0.018285541    0.000000000
      7        8          -0.001369809    0.025202645    0.000000000
      8        1          -0.010147647    0.001448735    0.000000000
      9        1           0.020530439   -0.042377929    0.000000000
 -------------------------------------------------------------------
 Cartesian Forces:  Max     0.042377929 RMS     0.015762284

 GradGradGradGradGradGradGradGradGradGradGradGradGradGradGradGradGradGrad
 Berny optimization.
 Using GEDIIS/GDIIS optimizer.
 FormGI is forming the generalized inverse of G from B-inverse, IUseBI=4.
 Internal  Forces:  Max     0.028910939 RMS     0.010412932
 Search for a local minimum.
 Step number   3 out of a maximum of   39
 All quantities printed in internal units (Hartrees-Bohrs-Radians)
 Mixed Optimization -- RFO/linear search
 Update second derivatives using D2CorX and points    2    3
 ITU=  0  1  0
 Use linear search instead of GDIIS.
     Eigenvalues ---    0.00230   0.00230   0.00755   0.00798   0.01558
     Eigenvalues ---    0.01558   0.05151   0.10644   0.11138   0.15794
     Eigenvalues ---    0.16000   0.16000   0.16150   0.20402   0.20850
     Eigenvalues ---    0.55145   0.55473   0.55473   0.55473   0.55474
     Eigenvalues ---    0.58201
 RFO step:  Lambda=-6.63749268D-03 EMin= 2.30000000D-03
 Quartic linear search produced a step of -0.08941.
 Iteration  1 RMS(Cart)=  0.03084428 RMS(Int)=  0.00080781
 Iteration  2 RMS(Cart)=  0.00072372 RMS(Int)=  0.00006441
 Iteration  3 RMS(Cart)=  0.00000043 RMS(Int)=  0.00006441
 ClnCor:  largest displacement from symmetrization is 3.33D-15 for atom     6.
 Variable       Old X    -DE/DX   Delta X   Delta X   Delta X     New X
                                 (Linear)    (Quad)   (Total)
    R1        1.96027  -0.02743  -0.00871  -0.03040  -0.03911   1.92116
    R2        1.91979  -0.01631  -0.00630  -0.01586  -0.02216   1.89763
    R3        3.29787   0.00235  -0.01745   0.05041   0.03307   3.33094
    R4        2.74212   0.01374  -0.03418   0.15226   0.11804   2.86016
    R5        1.91539  -0.01786  -0.00604  -0.01887  -0.02491   1.89048
    R6        1.92549  -0.02118  -0.00664  -0.02338  -0.03002   1.89547
    R7        3.60074   0.00408  -0.03085   0.09041   0.05949   3.66023
    R8        1.90906  -0.01000  -0.00566  -0.00648  -0.01214   1.89693
    R9        1.96529  -0.02891  -0.00901  -0.03258  -0.04159   1.92370
    A1        1.88675  -0.01170   0.00145  -0.06770  -0.06625   1.82051
    A2        2.76955   0.00196   0.00101   0.00705   0.00795   2.77750
    A3        2.24776  -0.00020   0.00028   0.00060   0.00076   2.24852
    A4        2.79607   0.00119  -0.00038   0.00808   0.00776   2.80383
    A5        1.59970   0.00196  -0.00103   0.01178   0.01068   1.61039
    A6        1.88741  -0.00315   0.00141  -0.01986  -0.01845   1.86896
    A7        1.98298  -0.00232   0.00445  -0.02152  -0.01713   1.96584
    A8        2.41280   0.00548  -0.00587   0.04138   0.03558   2.44838
    A9        1.80741  -0.00429   0.00618  -0.03530  -0.02912   1.77829
   A10        2.79614   0.00040   0.00035   0.00446   0.00498   2.80113
   A11        2.42441   0.00135  -0.00647   0.01750   0.01121   2.43562
    D1        0.00000   0.00000   0.00000   0.00000   0.00000   0.00000
    D2        3.14159   0.00000   0.00000   0.00000   0.00000   3.14159
    D3        3.14159   0.00000   0.00000   0.00000   0.00000   3.14159
    D4        0.00000   0.00000   0.00000   0.00000   0.00000   0.00000
    D5        0.00000   0.00000   0.00000   0.00000   0.00000   0.00000
    D6        0.00000   0.00000   0.00000   0.00000   0.00000   0.00000
    D7        3.14159   0.00000   0.00000   0.00000   0.00000   3.14159
    D8        3.14159   0.00000   0.00000   0.00000   0.00000   3.14159
    D9        0.00000   0.00000   0.00000   0.00000   0.00000   0.00000
         Item               Value     Threshold  Converged?
 Maximum Force            0.028911     0.000450     NO 
 RMS     Force            0.010413     0.000300     NO 
 Maximum Displacement     0.100411     0.001800     NO 
 RMS     Displacement     0.030656     0.001200     NO 
 Predicted change in Energy=-3.699199D-03
 GradGradGradGradGradGradGradGradGradGradGradGradGradGradGradGradGradGrad

                          Input orientation:                          
 ---------------------------------------------------------------------
 Center     Atomic      Atomic             Coordinates (Angstroms)
 Number     Number       Type             X           Y           Z
 ---------------------------------------------------------------------
      1          8           0       -0.031465    2.455577    0.000000
      2          1           0        0.985086    2.442634    0.000000
      3          1           0       -0.267214    3.431693    0.000000
      4          8           0        2.640052    3.049305    0.000000
      5          1           0        3.640361    3.062916    0.000000
      6          1           0        2.332372    4.003991    0.000000
      7          8           0        2.243615    0.286766    0.000000
      8          1           0        3.240558    0.403976    0.000000
      9          1           0        1.919020    1.251605    0.000000
 ---------------------------------------------------------------------
                    Distance matrix (angstroms):
                    1          2          3          4          5
     1  O    0.000000
     2  H    1.016634   0.000000
     3  H    1.004181   1.595774   0.000000
     4  O    2.736699   1.762658   2.932306   0.000000
     5  H    3.721716   2.726762   3.924937   1.000401   0.000000
     6  H    2.825830   2.062283   2.661836   1.003041   1.611352
     7  O    3.143204   2.496330   4.024280   2.790840   3.107718
     8  H    3.862020   3.040276   4.633738   2.712632   2.688829
     9  H    2.292148   1.513533   3.087459   1.936908   2.498772
                    6          7          8          9
     6  H    0.000000
     7  O    3.718285   0.000000
     8  H    3.712803   1.003810   0.000000
     9  H    2.783251   1.017977   1.570012   0.000000
 Stoichiometry    H6O3
 Framework group  CS[SG(H6O3)]
 Deg. of freedom    15
 Full point group                 CS      NOp   2
 Largest Abelian subgroup         CS      NOp   2
 Largest concise Abelian subgroup C1      NOp   1
                         Standard orientation:                         
 ---------------------------------------------------------------------
 Center     Atomic      Atomic             Coordinates (Angstroms)
 Number     Number       Type             X           Y           Z
 ---------------------------------------------------------------------
      1          8           0        1.529777   -0.894314    0.000000
      2          1           0        0.558488   -0.594075    0.000000
      3          1           0        1.479501   -1.897236    0.000000
      4          8           0       -1.200527   -0.707334    0.000000
      5          1           0       -2.163755   -0.437161    0.000000
      6          1           0       -1.175746   -1.710069    0.000000
      7          8           0       -0.038128    1.829912    0.000000
      8          1           0       -1.027462    1.999772    0.000000
      9          1           0        0.000000    0.812649    0.000000
 ---------------------------------------------------------------------
 Rotational constants (GHZ):      7.9096725      5.4738998      3.2350671
 Standard basis: 3-21G (6D, 7F)
 There are    33 symmetry adapted cartesian basis functions of A'  symmetry.
 There are     6 symmetry adapted cartesian basis functions of A"  symmetry.
 There are    33 symmetry adapted basis functions of A'  symmetry.
 There are     6 symmetry adapted basis functions of A"  symmetry.
    39 basis functions,    63 primitive gaussians,    39 cartesian basis functions
    15 alpha electrons       15 beta electrons
       nuclear repulsion energy        82.2443615355 Hartrees.
 NAtoms=    9 NActive=    9 NUniq=    9 SFac= 1.00D+00 NAtFMM=   60 NAOKFM=F Big=F
 Integral buffers will be    131072 words long.
 Raffenetti 2 integral format.
 Two-electron integral symmetry is turned on.
 One-electron integrals computed using PRISM.
 NBasis=    39 RedAO= T EigKep=  6.25D-02  NBF=    33     6
 NBsUse=    39 1.00D-06 EigRej= -1.00D+00 NBFU=    33     6
 Initial guess from the checkpoint file:  "test_h20_opt.chk"
 B after Tr=     0.000000    0.000000    0.000000
         Rot=    1.000000    0.000000    0.000000    0.000293 Ang=   0.03 deg.
 Initial guess orbital symmetries:
       Occupied  (A') (A') (A') (A') (A') (A') (A') (A') (A') (A')
                 (A") (A') (A') (A") (A")
       Virtual   (A') (A') (A') (A') (A') (A') (A') (A') (A') (A')
                 (A') (A') (A') (A') (A') (A') (A') (A') (A') (A')
                 (A') (A") (A") (A")
 ExpMin= 1.83D-01 ExpMax= 3.22D+02 ExpMxC= 3.22D+02 IAcc=1 IRadAn=         1 AccDes= 0.00D+00
 Harris functional with IExCor=  402 and IRadAn=       1 diagonalized for initial guess.
 HarFok:  IExCor=  402 AccDes= 0.00D+00 IRadAn=         1 IDoV= 1 UseB2=F ITyADJ=14
 ICtDFT=  3500011 ScaDFX=  1.000000  1.000000  1.000000  1.000000
 FoFCou: FMM=F IPFlag=           0 FMFlag=      100000 FMFlg1=           0
         NFxFlg=           0 DoJE=T BraDBF=F KetDBF=T FulRan=T
         wScrn=  0.000000 ICntrl=     500 IOpCl=  0 I1Cent=   200000004 NGrid=           0
         NMat0=    1 NMatS0=      1 NMatT0=    0 NMatD0=    1 NMtDS0=    0 NMtDT0=    0
 Petite list used in FoFCou.
 Keep R1 ints in memory in symmetry-blocked form, NReq=1191093.
 Requested convergence on RMS density matrix=1.00D-08 within 128 cycles.
 Requested convergence on MAX density matrix=1.00D-06.
 Requested convergence on             energy=1.00D-06.
 No special actions if energy rises.
 Integral accuracy reduced to 1.0D-05 until final iterations.
 Initial convergence to 1.0D-05 achieved.  Increase integral accuracy.
 SCF Done:  E(RB3LYP) =  -227.934682940     A.U. after   11 cycles
            NFock= 11  Conv=0.12D-08     -V/T= 2.0075
 Calling FoFJK, ICntrl=      2127 FMM=F ISym2X=1 I1Cent= 0 IOpClX= 0 NMat=1 NMatS=1 NMatT=0.
 ***** Axes restored to original set *****
 -------------------------------------------------------------------
 Center     Atomic                   Forces (Hartrees/Bohr)
 Number     Number              X              Y              Z
 -------------------------------------------------------------------
      1        8           0.011976757    0.005052525    0.000000000
      2        1          -0.021748193    0.008881240    0.000000000
      3        1           0.000487072   -0.005485200    0.000000000
      4        8           0.003458729    0.013157744    0.000000000
      5        1          -0.007428009   -0.001135112    0.000000000
      6        1           0.005736149   -0.007601745    0.000000000
      7        8           0.000947111    0.016214571    0.000000000
      8        1          -0.004136768   -0.002087294    0.000000000
      9        1           0.010707151   -0.026996729    0.000000000
 -------------------------------------------------------------------
 Cartesian Forces:  Max     0.026996729 RMS     0.009051589

 GradGradGradGradGradGradGradGradGradGradGradGradGradGradGradGradGradGrad
 Berny optimization.
 Using GEDIIS/GDIIS optimizer.
 FormGI is forming the generalized inverse of G from B-inverse, IUseBI=4.
 Internal  Forces:  Max     0.014406665 RMS     0.005036552
 Search for a local minimum.
 Step number   4 out of a maximum of   39
 All quantities printed in internal units (Hartrees-Bohrs-Radians)
 Mixed Optimization -- RFO/linear search
 Update second derivatives using D2CorX and points    3    4
 DE= -5.24D-03 DEPred=-3.70D-03 R= 1.42D+00
 TightC=F SS=  1.41D+00  RLast= 1.78D-01 DXNew= 8.4853D-01 5.3253D-01
 Trust test= 1.42D+00 RLast= 1.78D-01 DXMaxT set to 5.33D-01
 ITU=  1  0  1  0
 Use linear search instead of GDIIS.
     Eigenvalues ---    0.00230   0.00230   0.00758   0.00796   0.01558
     Eigenvalues ---    0.01558   0.03659   0.10267   0.10629   0.15705
     Eigenvalues ---    0.15942   0.16000   0.19035   0.20436   0.20657
     Eigenvalues ---    0.40920   0.55314   0.55473   0.55473   0.55483
     Eigenvalues ---    0.56070
 RFO step:  Lambda=-2.74158756D-03 EMin= 2.30000000D-03
 Quartic linear search produced a step of  0.85023.
 Iteration  1 RMS(Cart)=  0.04092016 RMS(Int)=  0.00814324
 Iteration  2 RMS(Cart)=  0.01048267 RMS(Int)=  0.00029255
 Iteration  3 RMS(Cart)=  0.00002274 RMS(Int)=  0.00029188
 Iteration  4 RMS(Cart)=  0.00000000 RMS(Int)=  0.00029188
 ClnCor:  largest displacement from symmetrization is 7.92D-13 for atom     4.
 Variable       Old X    -DE/DX   Delta X   Delta X   Delta X     New X
                                 (Linear)    (Quad)   (Total)
    R1        1.92116  -0.01247  -0.03325  -0.00960  -0.04285   1.87831
    R2        1.89763  -0.00545  -0.01884   0.00189  -0.01696   1.88067
    R3        3.33094   0.00253   0.02812   0.05139   0.07918   3.41012
    R4        2.86016   0.01138   0.10036   0.14535   0.24614   3.10631
    R5        1.89048  -0.00744  -0.02118  -0.00383  -0.02501   1.86547
    R6        1.89547  -0.00900  -0.02552  -0.00565  -0.03117   1.86430
    R7        3.66023   0.00324   0.05058   0.07502   0.12554   3.78577
    R8        1.89693  -0.00435  -0.01032  -0.00013  -0.01045   1.88648
    R9        1.92370  -0.01441  -0.03536  -0.01427  -0.04963   1.87407
    A1        1.82051   0.00154  -0.05633   0.04952  -0.00680   1.81370
    A2        2.77750   0.00187   0.00676   0.01111   0.01788   2.79538
    A3        2.24852  -0.00020   0.00065   0.00187   0.00253   2.25105
    A4        2.80383  -0.00006   0.00660  -0.00249   0.00352   2.80735
    A5        1.61039   0.00105   0.00908   0.00619   0.01586   1.62625
    A6        1.86896  -0.00099  -0.01569  -0.00370  -0.01938   1.84958
    A7        1.96584  -0.00289  -0.01457  -0.03151  -0.04548   1.92037
    A8        2.44838   0.00389   0.03025   0.03520   0.06486   2.51323
    A9        1.77829   0.00302  -0.02476   0.04075   0.01599   1.79428
   A10        2.80113   0.00049   0.00424   0.00510   0.00872   2.80985
   A11        2.43562   0.00067   0.00953   0.01094   0.01986   2.45548
    D1        0.00000   0.00000   0.00000   0.00000   0.00000   0.00000
    D2        3.14159   0.00000   0.00000   0.00000   0.00000   3.14159
    D3        3.14159   0.00000   0.00000   0.00000   0.00000   3.14159
    D4        0.00000   0.00000   0.00000   0.00000   0.00000   0.00000
    D5        0.00000   0.00000   0.00000   0.00000   0.00000   0.00000
    D6        0.00000   0.00000   0.00000   0.00000   0.00000   0.00000
    D7        3.14159   0.00000   0.00000   0.00000   0.00000   3.14159
    D8        3.14159   0.00000   0.00000   0.00000   0.00000   3.14159
    D9        0.00000   0.00000   0.00000   0.00000   0.00000   0.00000
         Item               Value     Threshold  Converged?
 Maximum Force            0.014407     0.000450     NO 
 RMS     Force            0.005037     0.000300     NO 
 Maximum Displacement     0.120433     0.001800     NO 
 RMS     Displacement     0.048780     0.001200     NO 
 Predicted change in Energy=-3.181618D-03
 GradGradGradGradGradGradGradGradGradGradGradGradGradGradGradGradGradGrad

                          Input orientation:                          
 ---------------------------------------------------------------------
 Center     Atomic      Atomic             Coordinates (Angstroms)
 Number     Number       Type             X           Y           Z
 ---------------------------------------------------------------------
      1          8           0       -0.062409    2.487618    0.000000
      2          1           0        0.931492    2.476875    0.000000
      3          1           0       -0.291328    3.456140    0.000000
      4          8           0        2.635494    3.070849    0.000000
      5          1           0        3.622659    3.071996    0.000000
      6          1           0        2.362904    4.018987    0.000000
      7          8           0        2.280124    0.252176    0.000000
      8          1           0        3.271901    0.365949    0.000000
      9          1           0        1.951548    1.187875    0.000000
 ---------------------------------------------------------------------
                    Distance matrix (angstroms):
                    1          2          3          4          5
     1  O    0.000000
     2  H    0.993960   0.000000
     3  H    0.995208   1.566604   0.000000
     4  O    2.760225   1.804558   2.952073   0.000000
     5  H    3.731116   2.756183   3.932792   0.987165   0.000000
     6  H    2.868317   2.104056   2.713254   0.986545   1.575999
     7  O    3.238002   2.601556   4.108253   2.840987   3.123104
     8  H    3.952101   3.151749   4.716553   2.778758   2.728684
     9  H    2.396947   1.643787   3.189909   2.003341   2.518437
                    6          7          8          9
     6  H    0.000000
     7  O    3.767721   0.000000
     8  H    3.764434   0.998282   0.000000
     9  H    2.860841   0.991713   1.555279   0.000000
 Stoichiometry    H6O3
 Framework group  CS[SG(H6O3)]
 Deg. of freedom    15
 Full point group                 CS      NOp   2
 Largest Abelian subgroup         CS      NOp   2
 Largest concise Abelian subgroup C1      NOp   1
                         Standard orientation:                         
 ---------------------------------------------------------------------
 Center     Atomic      Atomic             Coordinates (Angstroms)
 Number     Number       Type             X           Y           Z
 ---------------------------------------------------------------------
      1          8           0        0.491067   -1.741070    0.000000
      2          1           0        0.000000   -0.876889    0.000000
      3          1           0       -0.230535   -2.426438    0.000000
      4          8           0       -1.371046    0.296423    0.000000
      5          1           0       -1.868994    1.148797    0.000000
      6          1           0       -2.053051   -0.416417    0.000000
      7          8           0        1.243307    1.408342    0.000000
      8          1           0        0.645722    2.208004    0.000000
      9          1           0        0.600235    0.653389    0.000000
 ---------------------------------------------------------------------
 Rotational constants (GHZ):      7.8359318      5.1686866      3.1143917
 Standard basis: 3-21G (6D, 7F)
 There are    33 symmetry adapted cartesian basis functions of A'  symmetry.
 There are     6 symmetry adapted cartesian basis functions of A"  symmetry.
 There are    33 symmetry adapted basis functions of A'  symmetry.
 There are     6 symmetry adapted basis functions of A"  symmetry.
    39 basis functions,    63 primitive gaussians,    39 cartesian basis functions
    15 alpha electrons       15 beta electrons
       nuclear repulsion energy        81.5379778680 Hartrees.
 NAtoms=    9 NActive=    9 NUniq=    9 SFac= 1.00D+00 NAtFMM=   60 NAOKFM=F Big=F
 Integral buffers will be    131072 words long.
 Raffenetti 2 integral format.
 Two-electron integral symmetry is turned on.
 One-electron integrals computed using PRISM.
 NBasis=    39 RedAO= T EigKep=  6.87D-02  NBF=    33     6
 NBsUse=    39 1.00D-06 EigRej= -1.00D+00 NBFU=    33     6
 Initial guess from the checkpoint file:  "test_h20_opt.chk"
 B after Tr=     0.000000    0.000000    0.000000
         Rot=    0.929765    0.000000    0.000000    0.368153 Ang=  43.20 deg.
 Initial guess orbital symmetries:
       Occupied  (A') (A') (A') (A') (A') (A') (A') (A') (A') (A')
                 (A") (A') (A') (A") (A")
       Virtual   (A') (A') (A') (A') (A') (A') (A') (A') (A') (A')
                 (A') (A') (A') (A') (A') (A') (A') (A') (A') (A')
                 (A') (A") (A") (A")
 ExpMin= 1.83D-01 ExpMax= 3.22D+02 ExpMxC= 3.22D+02 IAcc=1 IRadAn=         1 AccDes= 0.00D+00
 Harris functional with IExCor=  402 and IRadAn=       1 diagonalized for initial guess.
 HarFok:  IExCor=  402 AccDes= 0.00D+00 IRadAn=         1 IDoV= 1 UseB2=F ITyADJ=14
 ICtDFT=  3500011 ScaDFX=  1.000000  1.000000  1.000000  1.000000
 FoFCou: FMM=F IPFlag=           0 FMFlag=      100000 FMFlg1=           0
         NFxFlg=           0 DoJE=T BraDBF=F KetDBF=T FulRan=T
         wScrn=  0.000000 ICntrl=     500 IOpCl=  0 I1Cent=   200000004 NGrid=           0
         NMat0=    1 NMatS0=      1 NMatT0=    0 NMatD0=    1 NMtDS0=    0 NMtDT0=    0
 Petite list used in FoFCou.
 Keep R1 ints in memory in symmetry-blocked form, NReq=1191093.
 Requested convergence on RMS density matrix=1.00D-08 within 128 cycles.
 Requested convergence on MAX density matrix=1.00D-06.
 Requested convergence on             energy=1.00D-06.
 No special actions if energy rises.
 Integral accuracy reduced to 1.0D-05 until final iterations.
 Initial convergence to 1.0D-05 achieved.  Increase integral accuracy.
 SCF Done:  E(RB3LYP) =  -227.938437497     A.U. after   10 cycles
            NFock= 10  Conv=0.47D-08     -V/T= 2.0070
 Calling FoFJK, ICntrl=      2127 FMM=F ISym2X=1 I1Cent= 0 IOpClX= 0 NMat=1 NMatS=1 NMatT=0.
 ***** Axes restored to original set *****
 -------------------------------------------------------------------
 Center     Atomic                   Forces (Hartrees/Bohr)
 Number     Number              X              Y              Z
 -------------------------------------------------------------------
      1        8          -0.000997487    0.000393358    0.000000000
      2        1          -0.001874541    0.004406572    0.000000000
      3        1          -0.002712484    0.000923293    0.000000000
      4        8          -0.002216590    0.000535184    0.000000000
      5        1           0.003980078   -0.003447206    0.000000000
      6        1          -0.001390023    0.004966632    0.000000000
      7        8           0.003724420   -0.001891008    0.000000000
      8        1          -0.000782673   -0.001499705    0.000000000
      9        1           0.002269301   -0.004387120    0.000000000
 -------------------------------------------------------------------
 Cartesian Forces:  Max     0.004966632 RMS     0.002248625

 GradGradGradGradGradGradGradGradGradGradGradGradGradGradGradGradGradGrad
 Berny optimization.
 Using GEDIIS/GDIIS optimizer.
 FormGI is forming the generalized inverse of G from B-inverse, IUseBI=4.
 Internal  Forces:  Max     0.007423935 RMS     0.002534261
 Search for a local minimum.
 Step number   5 out of a maximum of   39
 All quantities printed in internal units (Hartrees-Bohrs-Radians)
 Mixed Optimization -- RFO/linear search
 Update second derivatives using D2CorX and points    3    4    5
 DE= -3.75D-03 DEPred=-3.18D-03 R= 1.18D+00
 TightC=F SS=  1.41D+00  RLast= 3.11D-01 DXNew= 8.9561D-01 9.3397D-01
 Trust test= 1.18D+00 RLast= 3.11D-01 DXMaxT set to 8.96D-01
 ITU=  1  1  0  1  0
 Use linear search instead of GDIIS.
     Eigenvalues ---    0.00230   0.00230   0.00762   0.00792   0.01558
     Eigenvalues ---    0.01558   0.02335   0.09899   0.10395   0.15654
     Eigenvalues ---    0.15941   0.16156   0.18420   0.20422   0.20610
     Eigenvalues ---    0.53273   0.55452   0.55473   0.55476   0.55745
     Eigenvalues ---    0.64096
 RFO step:  Lambda=-1.51899929D-03 EMin= 2.30000000D-03
 Quartic linear search produced a step of  0.42909.
 Iteration  1 RMS(Cart)=  0.04763349 RMS(Int)=  0.00586487
 Iteration  2 RMS(Cart)=  0.00760616 RMS(Int)=  0.00029469
 Iteration  3 RMS(Cart)=  0.00001224 RMS(Int)=  0.00029451
 Iteration  4 RMS(Cart)=  0.00000000 RMS(Int)=  0.00029451
 ClnCor:  largest displacement from symmetrization is 2.91D-12 for atom     4.
 Variable       Old X    -DE/DX   Delta X   Delta X   Delta X     New X
                                 (Linear)    (Quad)   (Total)
    R1        1.87831   0.00372  -0.01839   0.01071  -0.00767   1.87064
    R2        1.88067   0.00152  -0.00728   0.00453  -0.00274   1.87793
    R3        3.41012   0.00127   0.03398   0.03636   0.07001   3.48013
    R4        3.10631   0.00742   0.10562   0.12714   0.23320   3.33950
    R5        1.86547   0.00398  -0.01073   0.01025  -0.00048   1.86499
    R6        1.86430   0.00516  -0.01338   0.01273  -0.00065   1.86365
    R7        3.78577   0.00135   0.05387   0.06381   0.11759   3.90335
    R8        1.88648  -0.00095  -0.00448   0.00137  -0.00311   1.88337
    R9        1.87407   0.00417  -0.02130   0.01291  -0.00839   1.86567
    A1        1.81370   0.00456  -0.00292   0.00366   0.00074   1.81444
    A2        2.79538   0.00172   0.00767   0.00986   0.01754   2.81292
    A3        2.25105  -0.00045   0.00108  -0.00005   0.00104   2.25209
    A4        2.80735  -0.00145   0.00151  -0.00737  -0.00646   2.80088
    A5        1.62625  -0.00015   0.00681   0.00146   0.00888   1.63513
    A6        1.84958   0.00159  -0.00832   0.00590  -0.00241   1.84717
    A7        1.92037  -0.00340  -0.01951  -0.03273  -0.05164   1.86873
    A8        2.51323   0.00181   0.02783   0.02683   0.05405   2.56728
    A9        1.79428   0.00264   0.00686  -0.00228   0.00458   1.79886
   A10        2.80985   0.00057   0.00374   0.00420   0.00734   2.81719
   A11        2.45548   0.00012   0.00852   0.01135   0.01926   2.47474
    D1        0.00000   0.00000   0.00000   0.00000   0.00000   0.00000
    D2        3.14159   0.00000   0.00000   0.00000   0.00000   3.14159
    D3        3.14159   0.00000   0.00000   0.00000   0.00000   3.14159
    D4        0.00000   0.00000   0.00000   0.00000   0.00000   0.00000
    D5        0.00000   0.00000   0.00000   0.00000   0.00000   0.00000
    D6        0.00000   0.00000   0.00000   0.00000   0.00000   0.00000
    D7        3.14159   0.00000   0.00000   0.00000   0.00000   3.14159
    D8        3.14159   0.00000   0.00000   0.00000   0.00000   3.14159
    D9        0.00000   0.00000   0.00000   0.00000   0.00000   0.00000
         Item               Value     Threshold  Converged?
 Maximum Force            0.007424     0.000450     NO 
 RMS     Force            0.002534     0.000300     NO 
 Maximum Displacement     0.108211     0.001800     NO 
 RMS     Displacement     0.053676     0.001200     NO 
 Predicted change in Energy=-1.154153D-03
 GradGradGradGradGradGradGradGradGradGradGradGradGradGradGradGradGradGrad

                          Input orientation:                          
 ---------------------------------------------------------------------
 Center     Atomic      Atomic             Coordinates (Angstroms)
 Number     Number       Type             X           Y           Z
 ---------------------------------------------------------------------
      1          8           0       -0.104670    2.522547    0.000000
      2          1           0        0.885187    2.513455    0.000000
      3          1           0       -0.335540    3.489113    0.000000
      4          8           0        2.633599    3.091871    0.000000
      5          1           0        3.620289    3.070932    0.000000
      6          1           0        2.384684    4.046145    0.000000
      7          8           0        2.321909    0.202420    0.000000
      8          1           0        3.311420    0.321370    0.000000
      9          1           0        1.985507    1.130612    0.000000
 ---------------------------------------------------------------------
                    Distance matrix (angstroms):
                    1          2          3          4          5
     1  O    0.000000
     2  H    0.989899   0.000000
     3  H    0.993756   1.562717   0.000000
     4  O    2.796828   1.841605   2.995595   0.000000
     5  H    3.765109   2.791337   3.977871   0.986912   0.000000
     6  H    2.918601   2.144208   2.776671   0.986204   1.574091
     7  O    3.357271   2.721222   4.226628   2.906213   3.148674
     8  H    4.063847   3.269839   4.830623   2.852213   2.766856
     9  H    2.511239   1.767189   3.309046   2.065566   2.537194
                    6          7          8          9
     6  H    0.000000
     7  O    3.844237   0.000000
     8  H    3.838332   0.996636   0.000000
     9  H    2.942733   0.987272   1.553357   0.000000
 Stoichiometry    H6O3
 Framework group  CS[SG(H6O3)]
 Deg. of freedom    15
 Full point group                 CS      NOp   2
 Largest Abelian subgroup         CS      NOp   2
 Largest concise Abelian subgroup C1      NOp   1
                         Standard orientation:                         
 ---------------------------------------------------------------------
 Center     Atomic      Atomic             Coordinates (Angstroms)
 Number     Number       Type             X           Y           Z
 ---------------------------------------------------------------------
      1          8           0        0.497185   -1.790120    0.000000
      2          1           0        0.000000   -0.934137    0.000000
      3          1           0       -0.216343   -2.481806    0.000000
      4          8           0       -1.389481    0.274521    0.000000
      5          1           0       -1.874860    1.133824    0.000000
      6          1           0       -2.083230   -0.426414    0.000000
      7          8           0        1.254662    1.480584    0.000000
      8          1           0        0.647528    2.270945    0.000000
      9          1           0        0.627979    0.717711    0.000000
 ---------------------------------------------------------------------
 Rotational constants (GHZ):      7.7116912      4.8170111      2.9649761
 Standard basis: 3-21G (6D, 7F)
 There are    33 symmetry adapted cartesian basis functions of A'  symmetry.
 There are     6 symmetry adapted cartesian basis functions of A"  symmetry.
 There are    33 symmetry adapted basis functions of A'  symmetry.
 There are     6 symmetry adapted basis functions of A"  symmetry.
    39 basis functions,    63 primitive gaussians,    39 cartesian basis functions
    15 alpha electrons       15 beta electrons
       nuclear repulsion energy        80.2798366802 Hartrees.
 NAtoms=    9 NActive=    9 NUniq=    9 SFac= 1.00D+00 NAtFMM=   60 NAOKFM=F Big=F
 Integral buffers will be    131072 words long.
 Raffenetti 2 integral format.
 Two-electron integral symmetry is turned on.
 One-electron integrals computed using PRISM.
 NBasis=    39 RedAO= T EigKep=  7.72D-02  NBF=    33     6
 NBsUse=    39 1.00D-06 EigRej= -1.00D+00 NBFU=    33     6
 Initial guess from the checkpoint file:  "test_h20_opt.chk"
 B after Tr=     0.000000    0.000000    0.000000
         Rot=    0.999988    0.000000    0.000000   -0.004843 Ang=  -0.55 deg.
 Initial guess orbital symmetries:
       Occupied  (A') (A') (A') (A') (A') (A') (A') (A') (A') (A')
                 (A") (A') (A') (A") (A")
       Virtual   (A') (A') (A') (A') (A') (A') (A') (A') (A') (A')
                 (A') (A') (A') (A') (A') (A') (A') (A') (A') (A')
                 (A') (A") (A") (A")
 ExpMin= 1.83D-01 ExpMax= 3.22D+02 ExpMxC= 3.22D+02 IAcc=1 IRadAn=         1 AccDes= 0.00D+00
 Harris functional with IExCor=  402 and IRadAn=       1 diagonalized for initial guess.
 HarFok:  IExCor=  402 AccDes= 0.00D+00 IRadAn=         1 IDoV= 1 UseB2=F ITyADJ=14
 ICtDFT=  3500011 ScaDFX=  1.000000  1.000000  1.000000  1.000000
 FoFCou: FMM=F IPFlag=           0 FMFlag=      100000 FMFlg1=           0
         NFxFlg=           0 DoJE=T BraDBF=F KetDBF=T FulRan=T
         wScrn=  0.000000 ICntrl=     500 IOpCl=  0 I1Cent=   200000004 NGrid=           0
         NMat0=    1 NMatS0=      1 NMatT0=    0 NMatD0=    1 NMtDS0=    0 NMtDT0=    0
 Petite list used in FoFCou.
 Keep R1 ints in memory in symmetry-blocked form, NReq=1191093.
 Requested convergence on RMS density matrix=1.00D-08 within 128 cycles.
 Requested convergence on MAX density matrix=1.00D-06.
 Requested convergence on             energy=1.00D-06.
 No special actions if energy rises.
 Integral accuracy reduced to 1.0D-05 until final iterations.
 Initial convergence to 1.0D-05 achieved.  Increase integral accuracy.
 SCF Done:  E(RB3LYP) =  -227.940149060     A.U. after    9 cycles
            NFock=  9  Conv=0.72D-08     -V/T= 2.0070
 Calling FoFJK, ICntrl=      2127 FMM=F ISym2X=1 I1Cent= 0 IOpClX= 0 NMat=1 NMatS=1 NMatT=0.
 ***** Axes restored to original set *****
 -------------------------------------------------------------------
 Center     Atomic                   Forces (Hartrees/Bohr)
 Number     Number              X              Y              Z
 -------------------------------------------------------------------
      1        8          -0.003632059   -0.000658121    0.000000000
      2        1           0.003732226    0.002659626    0.000000000
      3        1          -0.002854640    0.001984199    0.000000000
      4        8          -0.003317749   -0.001571777    0.000000000
      5        1           0.004125469   -0.003413933    0.000000000
      6        1          -0.001768063    0.005149937    0.000000000
      7        8           0.003793480   -0.005038180    0.000000000
      8        1           0.000445390   -0.001334546    0.000000000
      9        1          -0.000524055    0.002222796    0.000000000
 -------------------------------------------------------------------
 Cartesian Forces:  Max     0.005149937 RMS     0.002475681

 GradGradGradGradGradGradGradGradGradGradGradGradGradGradGradGradGradGrad
 Berny optimization.
 Using GEDIIS/GDIIS optimizer.
 FormGI is forming the generalized inverse of G from B-inverse, IUseBI=4.
 Internal  Forces:  Max     0.007435734 RMS     0.002743052
 Search for a local minimum.
 Step number   6 out of a maximum of   39
 All quantities printed in internal units (Hartrees-Bohrs-Radians)
 Mixed Optimization -- RFO/linear search
 Update second derivatives using D2CorX and points    4    5    6
 DE= -1.71D-03 DEPred=-1.15D-03 R= 1.48D+00
 TightC=F SS=  1.41D+00  RLast= 2.82D-01 DXNew= 1.5062D+00 8.4707D-01
 Trust test= 1.48D+00 RLast= 2.82D-01 DXMaxT set to 8.96D-01
 ITU=  1  1  1  0  1  0
 Use linear search instead of GDIIS.
     Eigenvalues ---    0.00230   0.00230   0.00765   0.00787   0.01207
     Eigenvalues ---    0.01558   0.01558   0.09592   0.10249   0.15551
     Eigenvalues ---    0.15932   0.16163   0.18082   0.20410   0.20572
     Eigenvalues ---    0.54660   0.55473   0.55474   0.55559   0.56016
     Eigenvalues ---    0.70861
 RFO step:  Lambda=-7.58649543D-04 EMin= 2.30000000D-03
 Quartic linear search produced a step of  2.00000.
 Iteration  1 RMS(Cart)=  0.06916345 RMS(Int)=  0.05468180
 Iteration  2 RMS(Cart)=  0.05120637 RMS(Int)=  0.01358732
 Iteration  3 RMS(Cart)=  0.01780556 RMS(Int)=  0.00112769
 Iteration  4 RMS(Cart)=  0.00006857 RMS(Int)=  0.00112629
 Iteration  5 RMS(Cart)=  0.00000005 RMS(Int)=  0.00112629
 ClnCor:  largest displacement from symmetrization is 2.82D-09 for atom     4.
 Variable       Old X    -DE/DX   Delta X   Delta X   Delta X     New X
                                 (Linear)    (Quad)   (Total)
    R1        1.87064   0.00650  -0.01535   0.01611   0.00076   1.87140
    R2        1.87793   0.00259  -0.00549   0.00570   0.00021   1.87814
    R3        3.48013   0.00004   0.14002  -0.00757   0.13123   3.61136
    R4        3.33950   0.00476   0.46639   0.03918   0.50720   3.84670
    R5        1.86499   0.00420  -0.00096   0.00481   0.00386   1.86885
    R6        1.86365   0.00543  -0.00129   0.00629   0.00500   1.86865
    R7        3.90335  -0.00012   0.23518   0.00186   0.23659   4.13994
    R8        1.88337   0.00028  -0.00622   0.00433  -0.00190   1.88147
    R9        1.86567   0.00744  -0.01678   0.01933   0.00255   1.86822
    A1        1.81444   0.00435   0.00148   0.00544   0.00692   1.82136
    A2        2.81292   0.00148   0.03508   0.00607   0.04123   2.85415
    A3        2.25209  -0.00050   0.00208  -0.00068   0.00148   2.25357
    A4        2.80088  -0.00149  -0.01293  -0.00605  -0.02128   2.77960
    A5        1.63513  -0.00025   0.01775  -0.00083   0.01923   1.65436
    A6        1.84717   0.00174  -0.00482   0.00688   0.00206   1.84923
    A7        1.86873  -0.00297  -0.10328  -0.01854  -0.11952   1.74921
    A8        2.56728   0.00122   0.10810   0.01166   0.11746   2.68475
    A9        1.79886   0.00260   0.00916   0.00546   0.01462   1.81348
   A10        2.81719   0.00064   0.01467   0.00479   0.01708   2.83427
   A11        2.47474  -0.00015   0.03852   0.00230   0.03844   2.51318
    D1        0.00000   0.00000   0.00000   0.00000   0.00000   0.00000
    D2        3.14159   0.00000   0.00000   0.00000   0.00000   3.14159
    D3        3.14159   0.00000   0.00000   0.00000   0.00000   3.14159
    D4        0.00000   0.00000   0.00000   0.00000   0.00000   0.00000
    D5        0.00000   0.00000   0.00000   0.00000   0.00000   0.00000
    D6        0.00000   0.00000   0.00000   0.00000   0.00000   0.00000
    D7        3.14159   0.00000   0.00000   0.00000   0.00000   3.14159
    D8        3.14159   0.00000   0.00000   0.00000   0.00000   3.14159
    D9        0.00000   0.00000   0.00000   0.00000   0.00000   0.00000
         Item               Value     Threshold  Converged?
 Maximum Force            0.007436     0.000450     NO 
 RMS     Force            0.002743     0.000300     NO 
 Maximum Displacement     0.219982     0.001800     NO 
 RMS     Displacement     0.121784     0.001200     NO 
 Predicted change in Energy=-7.562245D-04
 GradGradGradGradGradGradGradGradGradGradGradGradGradGradGradGradGradGrad

                          Input orientation:                          
 ---------------------------------------------------------------------
 Center     Atomic      Atomic             Coordinates (Angstroms)
 Number     Number       Type             X           Y           Z
 ---------------------------------------------------------------------
      1          8           0       -0.201839    2.605258    0.000000
      2          1           0        0.788450    2.600113    0.000000
      3          1           0       -0.443263    3.569360    0.000000
      4          8           0        2.623885    3.132366    0.000000
      5          1           0        3.609694    3.053585    0.000000
      6          1           0        2.428704    4.101761    0.000000
      7          8           0        2.422315    0.092576    0.000000
      8          1           0        3.409858    0.219242    0.000000
      9          1           0        2.064580    1.014202    0.000000
 ---------------------------------------------------------------------
                    Distance matrix (angstroms):
                    1          2          3          4          5
     1  O    0.000000
     2  H    0.990302   0.000000
     3  H    0.993870   1.567341   0.000000
     4  O    2.874466   1.911050   3.098121   0.000000
     5  H    3.837809   2.857456   4.085644   0.988953   0.000000
     6  H    3.026430   2.223822   2.920898   0.988849   1.579054
     7  O    3.633147   2.992867   4.505504   3.046465   3.190210
     8  H    4.328675   3.541232   5.105862   3.017290   2.841378
[...]
     9  H    2.901800   0.996689   1.581289   0.000000
 Stoichiometry    H6O3
 Framework group  CS[SG(H6O3)]
 Deg. of freedom    15
 Full point group                 CS      NOp   2
 Largest Abelian subgroup         CS      NOp   2
 Largest concise Abelian subgroup C1      NOp   1
                         Standard orientation:                         
 ---------------------------------------------------------------------
 Center     Atomic      Atomic             Coordinates (Angstroms)
 Number     Number       Type             X           Y           Z
 ---------------------------------------------------------------------
      1          8           0        2.071436    0.779922    0.000000
      2          1           0        1.186800    0.320647    0.000000
      3          1           0        2.743922    0.045277    0.000000
      4          8           0        0.000000   -1.204001    0.000000
      5          1           0       -0.797113   -1.793847    0.000000
      6          1           0        0.794803   -1.796960    0.000000
      7          8           0       -2.071446    0.781089    0.000000
      8          1           0       -2.742439    0.045079    0.000000
      9          1           0       -1.185894    0.323721    0.000000
 ---------------------------------------------------------------------
 Rotational constants (GHZ):     10.2642793      3.2283125      2.4558885
 Standard basis: 3-21G (6D, 7F)
 There are    33 symmetry adapted cartesian basis functions of A'  symmetry.
 There are     6 symmetry adapted cartesian basis functions of A"  symmetry.
 There are    33 symmetry adapted basis functions of A'  symmetry.
 There are     6 symmetry adapted basis functions of A"  symmetry.
    39 basis functions,    63 primitive gaussians,    39 cartesian basis functions
    15 alpha electrons       15 beta electrons
       nuclear repulsion energy        77.0709224070 Hartrees.
 NAtoms=    9 NActive=    9 NUniq=    9 SFac= 1.00D+00 NAtFMM=   60 NAOKFM=F Big=F
 Integral buffers will be    131072 words long.
 Raffenetti 2 integral format.
 Two-electron integral symmetry is turned on.
 One-electron integrals computed using PRISM.
 NBasis=    39 RedAO= T EigKep=  1.12D-01  NBF=    33     6
 NBsUse=    39 1.00D-06 EigRej= -1.00D+00 NBFU=    33     6
 Initial guess from the checkpoint file:  "test_h20_opt.chk"
 B after Tr=     0.000000    0.000000    0.000000
         Rot=    1.000000    0.000000    0.000000    0.000159 Ang=   0.02 deg.
 Initial guess orbital symmetries:
       Occupied  (A') (A') (A') (A') (A') (A') (A') (A') (A') (A')
                 (A") (A') (A') (A") (A")
       Virtual   (A') (A') (A') (A') (A') (A') (A') (A') (A') (A')
                 (A') (A') (A') (A') (A') (A') (A') (A') (A') (A')
                 (A') (A") (A") (A")
 Keep R1 ints in memory in symmetry-blocked form, NReq=1191093.
 Requested convergence on RMS density matrix=1.00D-08 within 128 cycles.
 Requested convergence on MAX density matrix=1.00D-06.
 Requested convergence on             energy=1.00D-06.
 No special actions if energy rises.
 SCF Done:  E(RB3LYP) =  -227.943491857     A.U. after    6 cycles
            NFock=  6  Conv=0.65D-08     -V/T= 2.0074
 Calling FoFJK, ICntrl=      2127 FMM=F ISym2X=1 I1Cent= 0 IOpClX= 0 NMat=1 NMatS=1 NMatT=0.
 ***** Axes restored to original set *****
 -------------------------------------------------------------------
 Center     Atomic                   Forces (Hartrees/Bohr)
 Number     Number              X              Y              Z
 -------------------------------------------------------------------
      1        8           0.000000524   -0.000031951    0.000000000
      2        1          -0.000001816    0.000031342    0.000000000
      3        1          -0.000001043    0.000007454    0.000000000
      4        8          -0.000015625   -0.000022096    0.000000000
      5        1           0.000008523    0.000000104    0.000000000
      6        1          -0.000000390    0.000012476    0.000000000
      7        8          -0.000023333   -0.000024816    0.000000000
      8        1           0.000002648   -0.000000689    0.000000000
      9        1           0.000030512    0.000028175    0.000000000
 -------------------------------------------------------------------
 Cartesian Forces:  Max     0.000031951 RMS     0.000014803

 GradGradGradGradGradGradGradGradGradGradGradGradGradGradGradGradGradGrad
 Berny optimization.
 Using GEDIIS/GDIIS optimizer.
 FormGI is forming the generalized inverse of G from B-inverse, IUseBI=4.
 Internal  Forces:  Max     0.000027409 RMS     0.000010551
 Search for a local minimum.
 Step number  34 out of a maximum of   39
 All quantities printed in internal units (Hartrees-Bohrs-Radians)
 Mixed Optimization -- En-DIIS/RFO-DIIS
 Swapping is turned off.
 Update second derivatives using D2CorX and points   25   26   27   29   30
                                                     31   32   33   34
 DE= -3.68D-08 DEPred=-3.46D-08 R= 1.06D+00
 Trust test= 1.06D+00 RLast= 6.89D-03 DXMaxT set to 7.53D-01
 ITU=  0  0  1  1  0  0 -1  1  1  1  1  1  0  0  1  1  1  1  1  1
 ITU=  1  1  1  1  1  1  1  1  1  1
     Eigenvalues ---    0.00071   0.00230   0.00230   0.00360   0.00768
     Eigenvalues ---    0.00888   0.00965   0.01324   0.01488   0.01558
     Eigenvalues ---    0.01558   0.12126   0.16135   0.17166   0.18223
     Eigenvalues ---    0.50413   0.54158   0.55385   0.55475   0.55918
     Eigenvalues ---    0.59402
 En-DIIS/RFO-DIIS IScMMF=        0 using points:    34   33   32   31   30
 RFO step:  Lambda=-7.47844507D-09.
 DidBck=F Rises=F RFO-DIIS coefs:    1.46182   -0.34246   -0.16484    0.02351    0.02197
 Iteration  1 RMS(Cart)=  0.00031723 RMS(Int)=  0.00000071
 Iteration  2 RMS(Cart)=  0.00000013 RMS(Int)=  0.00000071
 ClnCor:  largest displacement from symmetrization is 2.44D-11 for atom     1.
 Variable       Old X    -DE/DX   Delta X   Delta X   Delta X     New X
                                 (Linear)    (Quad)   (Total)
    R1        1.88359  -0.00001  -0.00002  -0.00001  -0.00003   1.88356
    R2        1.88210   0.00001   0.00001   0.00001   0.00001   1.88211
    R3        3.65116   0.00000  -0.00053  -0.00012  -0.00066   3.65050
    R4        4.48374   0.00000   0.00089  -0.00020   0.00070   4.48444
    R5        1.87389   0.00001  -0.00001   0.00001   0.00000   1.87389
    R6        1.87389   0.00001  -0.00001   0.00002   0.00001   1.87390
    R7        3.65469   0.00000   0.00078  -0.00005   0.00073   3.65542
    R8        1.88210   0.00000   0.00000   0.00000   0.00001   1.88211
    R9        1.88347   0.00002  -0.00004   0.00002  -0.00001   1.88346
    A1        1.83318   0.00000  -0.00006   0.00004  -0.00002   1.83317
    A2        2.71110   0.00002   0.00067   0.00010   0.00077   2.71186
    A3        2.66143  -0.00002  -0.00077  -0.00013  -0.00090   2.66054
    A4        2.86929   0.00000   0.00002   0.00000   0.00001   2.86930
    A5        1.55032   0.00000  -0.00001   0.00004   0.00003   1.55035
    A6        1.86357   0.00000   0.00000  -0.00004  -0.00004   1.86353
    A7        1.54776   0.00000  -0.00024   0.00003  -0.00022   1.54755
    A8        2.87185   0.00000   0.00025   0.00001   0.00026   2.87211
    A9        1.83327   0.00000  -0.00002   0.00001   0.00000   1.83327
   A10        2.66615  -0.00003   0.00053  -0.00019   0.00033   2.66648
   A11        2.70763   0.00003  -0.00016   0.00019   0.00002   2.70765
    D1        0.00000   0.00000   0.00000   0.00000   0.00000   0.00000
    D2        3.14159   0.00000   0.00000   0.00000   0.00000   3.14159
    D3        3.14159   0.00000   0.00000   0.00000   0.00000   3.14159
    D4        0.00000   0.00000   0.00000   0.00000   0.00000   0.00000
    D5        0.00000   0.00000   0.00000   0.00000   0.00000   0.00000
    D6        0.00000   0.00000   0.00000   0.00000   0.00000   0.00000
    D7        3.14159   0.00000   0.00000   0.00000   0.00000   3.14159
    D8        3.14159   0.00000   0.00000   0.00000   0.00000   3.14159
    D9        0.00000   0.00000   0.00000   0.00000   0.00000   0.00000
         Item               Value     Threshold  Converged?
 Maximum Force            0.000027     0.000450     YES
 RMS     Force            0.000011     0.000300     YES
 Maximum Displacement     0.000965     0.001800     YES
 RMS     Displacement     0.000317     0.001200     YES
 Predicted change in Energy=-1.334883D-08
 Optimization completed.
    -- Stationary point found.
                           ----------------------------
                           !   Optimized Parameters   !
                           ! (Angstroms and Degrees)  !
 --------------------------                            --------------------------
 ! Name  Definition              Value          Derivative Info.                !
 --------------------------------------------------------------------------------
 ! R1    R(1,2)                  0.9968         -DE/DX =    0.0                 !
 ! R2    R(1,3)                  0.996          -DE/DX =    0.0                 !
 ! R3    R(2,4)                  1.9321         -DE/DX =    0.0                 !
 ! R4    R(2,9)                  2.3727         -DE/DX =    0.0                 !
 ! R5    R(4,5)                  0.9916         -DE/DX =    0.0                 !
 ! R6    R(4,6)                  0.9916         -DE/DX =    0.0                 !
 ! R7    R(4,9)                  1.934          -DE/DX =    0.0                 !
 ! R8    R(7,8)                  0.996          -DE/DX =    0.0                 !
 ! R9    R(7,9)                  0.9967         -DE/DX =    0.0                 !
 ! A1    A(2,1,3)              105.0337         -DE/DX =    0.0                 !
 ! A2    A(1,2,4)              155.3344         -DE/DX =    0.0                 !
 ! A3    A(1,2,9)              152.4889         -DE/DX =    0.0                 !
 ! A4    A(2,4,5)              164.3982         -DE/DX =    0.0                 !
 ! A5    A(2,4,6)               88.8271         -DE/DX =    0.0                 !
 ! A6    A(5,4,6)              106.7748         -DE/DX =    0.0                 !
 ! A7    A(5,4,9)               88.6802         -DE/DX =    0.0                 !
 ! A8    A(6,4,9)              164.545          -DE/DX =    0.0                 !
 ! A9    A(8,7,9)              105.0389         -DE/DX =    0.0                 !
 ! A10   A(2,9,7)              152.7589         -DE/DX =    0.0                 !
 ! A11   A(4,9,7)              155.1358         -DE/DX =    0.0                 !
 ! D1    D(3,1,2,4)              0.0            -DE/DX =    0.0                 !
 ! D2    D(3,1,2,9)            180.0            -DE/DX =    0.0                 !
 ! D3    D(1,2,4,5)            180.0            -DE/DX =    0.0                 !
 ! D4    D(1,2,4,6)              0.0            -DE/DX =    0.0                 !
 ! D5    D(1,2,9,7)              0.0            -DE/DX =    0.0                 !
 ! D6    D(5,4,9,7)              0.0            -DE/DX =    0.0                 !
 ! D7    D(6,4,9,7)            180.0            -DE/DX =    0.0                 !
 ! D8    D(8,7,9,2)            180.0            -DE/DX =    0.0                 !
 ! D9    D(8,7,9,4)              0.0            -DE/DX =    0.0                 !
 --------------------------------------------------------------------------------
 GradGradGradGradGradGradGradGradGradGradGradGradGradGradGradGradGradGrad

                          Input orientation:                          
 ---------------------------------------------------------------------
 Center     Atomic      Atomic             Coordinates (Angstroms)
 Number     Number       Type             X           Y           Z
 ---------------------------------------------------------------------
      1          8           0       -0.386991    2.881115    0.000000
      2          1           0        0.575970    2.623779    0.000000
      3          1           0       -0.388241    3.877076    0.000000
      4          8           0        2.480434    2.949444    0.000000
      5          1           0        3.466803    2.847547    0.000000
      6          1           0        2.293319    3.923251    0.000000
      7          8           0        2.671619    0.086767    0.000000
      8          1           0        3.663409    0.177849    0.000000
      9          1           0        2.326062    1.021636    0.000000
 ---------------------------------------------------------------------
                    Distance matrix (angstroms):
                    1          2          3          4          5
     1  O    0.000000
     2  H    0.996752   0.000000
     3  H    0.995962   1.581283   0.000000
     4  O    2.868239   1.932109   3.014930   0.000000
     5  H    3.853940   2.899481   3.990150   0.991618   0.000000
     6  H    2.875780   2.153583   2.681958   0.991621   1.591919
     7  O    4.142882   3.290619   4.871261   2.869054   2.873016
     8  H    4.869639   3.938890   5.486361   3.013498   2.676928
     9  H    3.289121   2.372696   3.939668   1.933979   2.152962
                    6          7          8          9
     6  H    0.000000
     7  O    3.855090   0.000000
     8  H    3.988131   0.995963   0.000000
     9  H    2.901800   0.996689   1.581289   0.000000
 Stoichiometry    H6O3
 Framework group  CS[SG(H6O3)]
 Deg. of freedom    15
 Full point group                 CS      NOp   2
 Largest Abelian subgroup         CS      NOp   2
 Largest concise Abelian subgroup C1      NOp   1
                         Standard orientation:                         
 ---------------------------------------------------------------------
 Center     Atomic      Atomic             Coordinates (Angstroms)
 Number     Number       Type             X           Y           Z
 ---------------------------------------------------------------------
      1          8           0        2.071436    0.779922    0.000000
      2          1           0        1.186800    0.320647    0.000000
      3          1           0        2.743922    0.045277    0.000000
      4          8           0        0.000000   -1.204001    0.000000
      5          1           0       -0.797113   -1.793847    0.000000
      6          1           0        0.794803   -1.796960    0.000000
      7          8           0       -2.071446    0.781089    0.000000
      8          1           0       -2.742439    0.045079    0.000000
      9          1           0       -1.185894    0.323721    0.000000
 ---------------------------------------------------------------------
 Rotational constants (GHZ):     10.2642793      3.2283125      2.4558885

 **********************************************************************

            Population analysis using the SCF density.

 **********************************************************************

 Orbital symmetries:
       Occupied  (A') (A') (A') (A') (A') (A') (A') (A') (A') (A')
                 (A") (A') (A') (A") (A")
       Virtual   (A') (A') (A') (A') (A') (A') (A') (A') (A') (A')
                 (A') (A') (A") (A") (A") (A') (A') (A') (A') (A')
                 (A') (A') (A') (A')
 The electronic state is 1-A'.
 Alpha  occ. eigenvalues --  -19.08022 -18.98097 -18.98065  -1.04677  -0.95588
 Alpha  occ. eigenvalues --   -0.95566  -0.57333  -0.48968  -0.47035  -0.40662
 Alpha  occ. eigenvalues --   -0.33071  -0.30383  -0.30284  -0.23764  -0.23746
 Alpha virt. eigenvalues --    0.01855   0.10200   0.13762   0.13996   0.20666
 Alpha virt. eigenvalues --    0.29006   0.88624   0.89464   0.93723   0.97665
 Alpha virt. eigenvalues --    1.00923   1.11743   1.36499   1.45725   1.45959
 Alpha virt. eigenvalues --    1.52971   1.54757   1.54790   1.59117   1.76279
 Alpha virt. eigenvalues --    1.84118   2.65667   2.84451   2.93614
          Condensed to atoms (all electrons):
               1          2          3          4          5          6
     1  O    8.194821   0.237812   0.236286  -0.004123   0.000204   0.002678
     2  H    0.237812   0.438162  -0.043477   0.036133  -0.001040  -0.003650
     3  H    0.236286  -0.043477   0.508373   0.000344  -0.000013   0.002332
     4  O   -0.004123   0.036133   0.000344   8.099899   0.233064   0.233136
     5  H    0.000204  -0.001040  -0.000013   0.233064   0.439882  -0.026733
     6  H    0.002678  -0.003650   0.002332   0.233136  -0.026733   0.439790
     7  O    0.000001  -0.000303   0.000000  -0.004095   0.002700   0.000203
     8  H    0.000000  -0.000002   0.000000   0.000342   0.002367  -0.000013
     9  H   -0.000303   0.003248  -0.000003   0.035939  -0.003628  -0.001036
               7          8          9
     1  O    0.000001   0.000000  -0.000303
     2  H   -0.000303  -0.000002   0.003248
     3  H    0.000000   0.000000  -0.000003
     4  O   -0.004095   0.000342   0.035939
     5  H    0.002700   0.002367  -0.003628
     6  H    0.000203  -0.000013  -0.001036
     7  O    8.194467   0.236292   0.237891
     8  H    0.236292   0.508299  -0.043490
     9  H    0.237891  -0.043490   0.438181
 Mulliken charges:
               1
     1  O   -0.667376
     2  H    0.333118
     3  H    0.296157
     4  O   -0.630639
     5  H    0.353198
     6  H    0.353294
     7  O   -0.667156
     8  H    0.296206
     9  H    0.333200
 Sum of Mulliken charges =   0.00000
 Mulliken charges with hydrogens summed into heavy atoms:
               1
     1  O   -0.038102
     4  O    0.075852
     7  O   -0.037750
 Electronic spatial extent (au):  <R**2>=            454.5520
 Charge=              0.0000 electrons
 Dipole moment (field-independent basis, Debye):
    X=             -0.0022    Y=             -7.1131    Z=              0.0000  Tot=              7.1131
 Quadrupole moment (field-independent basis, Debye-Ang):
   XX=            -17.9484   YY=            -16.7218   ZZ=            -20.5619
   XY=              0.0042   XZ=              0.0000   YZ=              0.0000
 Traceless Quadrupole moment (field-independent basis, Debye-Ang):
   XX=              0.4623   YY=              1.6889   ZZ=             -2.1512
   XY=              0.0042   XZ=              0.0000   YZ=              0.0000
 Octapole moment (field-independent basis, Debye-Ang**2):
  XXX=              0.0434  YYY=            -21.8436  ZZZ=              0.0000  XYY=              0.0126
  XXY=            -27.2344  XXZ=              0.0000  XZZ=             -0.0006  YZZ=             -0.8121
  YYZ=              0.0000  XYZ=              0.0000
 Hexadecapole moment (field-independent basis, Debye-Ang**3):
 XXXX=           -289.3197 YYYY=            -90.3095 ZZZZ=            -12.7615 XXXY=              0.0881
 XXXZ=              0.0000 YYYX=              0.0315 YYYZ=              0.0000 ZZZX=              0.0000
 ZZZY=              0.0000 XXYY=            -92.5129 XXZZ=            -64.4310 YYZZ=            -22.8853
 XXYZ=              0.0000 YYXZ=              0.0000 ZZXY=              0.0139
 N-N= 7.707092240704D+01 E-N=-6.933537504246D+02  KE= 2.262699653378D+02
 Symmetry A'   KE= 2.120383624835D+02
 Symmetry A"   KE= 1.423160285432D+01
 1\1\GINC-CH-MINT\FOpt\RB3LYP\3-21G\H6O3\CJS14\21-May-2015\0\\# opt b3l
 yp/3-21g geom=connectivity\\test h20\\0,1\O,-0.3869906962,2.8811150641
 ,0.\H,0.5759696862,2.6237787645,0.\H,-0.3882410315,3.8770763151,0.\O,2
 .4804344819,2.9494441582,0.\H,3.4668034702,2.8475467686,0.\H,2.2933193
 055,3.9232513999,0.\O,2.6716190292,0.0867671672,0.\H,3.6634090264,0.17
 78485735,0.\H,2.3260615783,1.021635649,0.\\Version=EM64M-G09RevD.01\St
 ate=1-A'\HF=-227.9434919\RMSD=6.489e-09\RMSF=1.480e-05\Dipole=1.887653
 5,2.0660306,0.\Quadrupole=0.7614155,0.8379519,-1.5993673,0.4543883,0.,
 0.\PG=CS [SG(H6O3)]\\@


 MYSTERY IS THE WISDOM OF BLOCKHEADS... HORACE WALPOLE 
 Job cpu time:       0 days  0 hours  1 minutes  6.8 seconds.
 File lengths (MBytes):  RWF=      5 Int=      0 D2E=      0 Chk=      1 Scr=      1
 Normal termination of Gaussian 09 at Thu May 21 11:38:15 2015.
